
                                 *****************
                                 * O   R   C   A *
                                 *****************

                                            #,                                       
                                            ###                                      
                                            ####                                     
                                            #####                                    
                                            ######                                   
                                           ########,                                 
                                     ,,################,,,,,                         
                               ,,#################################,,                 
                          ,,##########################################,,             
                       ,#########################################, ''#####,          
                    ,#############################################,,   '####,        
                  ,##################################################,,,,####,       
                ,###########''''           ''''###############################       
              ,#####''   ,,,,##########,,,,          '''####'''          '####       
            ,##' ,,,,###########################,,,                        '##       
           ' ,,###''''                  '''############,,,                           
         ,,##''                                '''############,,,,        ,,,,,,###''
      ,#''                                            '''#######################'''  
     '                                                          ''''####''''         
             ,#######,   #######,   ,#######,      ##                                
            ,#'     '#,  ##    ##  ,#'     '#,    #''#        ######   ,####,        
            ##       ##  ##   ,#'  ##            #'  '#       #        #'  '#        
            ##       ##  #######   ##           ,######,      #####,   #    #        
            '#,     ,#'  ##    ##  '#,     ,#' ,#      #,         ##   #,  ,#        
             '#######'   ##     ##  '#######'  #'      '#     #####' # '####'        



                  #######################################################
                  #                        -***-                        #
                  #          Department of theory and spectroscopy      #
                  #    Directorship and core code : Frank Neese         #
                  #        Max Planck Institute fuer Kohlenforschung    #
                  #                Kaiser Wilhelm Platz 1               #
                  #                 D-45470 Muelheim/Ruhr               #
                  #                      Germany                        #
                  #                                                     #
                  #                  All rights reserved                #
                  #                        -***-                        #
                  #######################################################



                         Program Version 5.0.4 -  RELEASE  -

 With contributions from (in alphabetic order):
   Daniel Aravena         : Magnetic Suceptibility
   Michael Atanasov       : Ab Initio Ligand Field Theory (pilot matlab implementation)
   Alexander A. Auer      : GIAO ZORA, VPT2 properties, NMR spectrum
   Ute Becker             : Parallelization
   Giovanni Bistoni       : ED, misc. LED, open-shell LED, HFLD
   Martin Brehm           : Molecular dynamics
   Dmytro Bykov           : SCF Hessian
   Vijay G. Chilkuri      : MRCI spin determinant printing, contributions to CSF-ICE
   Dipayan Datta          : RHF DLPNO-CCSD density
   Achintya Kumar Dutta   : EOM-CC, STEOM-CC
   Dmitry Ganyushin       : Spin-Orbit,Spin-Spin,Magnetic field MRCI
   Miquel Garcia          : C-PCM and meta-GGA Hessian, CC/C-PCM, Gaussian charge scheme
   Yang Guo               : DLPNO-NEVPT2, F12-NEVPT2, CIM, IAO-localization
   Andreas Hansen         : Spin unrestricted coupled pair/coupled cluster methods
   Benjamin Helmich-Paris : MC-RPA, TRAH-SCF, COSX integrals
   Lee Huntington         : MR-EOM, pCC
   Robert Izsak           : Overlap fitted RIJCOSX, COSX-SCS-MP3, EOM
   Marcus Kettner         : VPT2
   Christian Kollmar      : KDIIS, OOCD, Brueckner-CCSD(T), CCSD density, CASPT2, CASPT2-K
   Simone Kossmann        : Meta GGA functionals, TD-DFT gradient, OOMP2, MP2 Hessian
   Martin Krupicka        : Initial AUTO-CI
   Lucas Lang             : DCDCAS
   Marvin Lechner         : AUTO-CI (C++ implementation), FIC-MRCC
   Dagmar Lenk            : GEPOL surface, SMD
   Dimitrios Liakos       : Extrapolation schemes; Compound Job, initial MDCI parallelization
   Dimitrios Manganas     : Further ROCIS development; embedding schemes
   Dimitrios Pantazis     : SARC Basis sets
   Anastasios Papadopoulos: AUTO-CI, single reference methods and gradients
   Taras Petrenko         : DFT Hessian,TD-DFT gradient, ASA, ECA, R-Raman, ABS, FL, XAS/XES, NRVS
   Peter Pinski           : DLPNO-MP2, DLPNO-MP2 Gradient
   Christoph Reimann      : Effective Core Potentials
   Marius Retegan         : Local ZFS, SOC
   Christoph Riplinger    : Optimizer, TS searches, QM/MM, DLPNO-CCSD(T), (RO)-DLPNO pert. Triples
   Tobias Risthaus        : Range-separated hybrids, TD-DFT gradient, RPA, STAB
   Michael Roemelt        : Original ROCIS implementation
   Masaaki Saitow         : Open-shell DLPNO-CCSD energy and density
   Barbara Sandhoefer     : DKH picture change effects
   Avijit Sen             : IP-ROCIS
   Kantharuban Sivalingam : CASSCF convergence, NEVPT2, FIC-MRCI
   Bernardo de Souza      : ESD, SOC TD-DFT
   Georgi Stoychev        : AutoAux, RI-MP2 NMR, DLPNO-MP2 response
   Willem Van den Heuvel  : Paramagnetic NMR
   Boris Wezisla          : Elementary symmetry handling
   Frank Wennmohs         : Technical directorship


 We gratefully acknowledge several colleagues who have allowed us to
 interface, adapt or use parts of their codes:
   Stefan Grimme, W. Hujo, H. Kruse, P. Pracht,  : VdW corrections, initial TS optimization,
                  C. Bannwarth, S. Ehlert          DFT functionals, gCP, sTDA/sTD-DF
   Ed Valeev, F. Pavosevic, A. Kumar             : LibInt (2-el integral package), F12 methods
   Garnet Chan, S. Sharma, J. Yang, R. Olivares  : DMRG
   Ulf Ekstrom                                   : XCFun DFT Library
   Mihaly Kallay                                 : mrcc  (arbitrary order and MRCC methods)
   Jiri Pittner, Ondrej Demel                    : Mk-CCSD
   Frank Weinhold                                : gennbo (NPA and NBO analysis)
   Christopher J. Cramer and Donald G. Truhlar   : smd solvation model
   Lars Goerigk                                  : TD-DFT with DH, B97 family of functionals
   V. Asgeirsson, H. Jonsson                     : NEB implementation
   FAccTs GmbH                                   : IRC, NEB, NEB-TS, DLPNO-Multilevel, CI-OPT
                                                   MM, QMMM, 2- and 3-layer-ONIOM, Crystal-QMMM,
                                                   LR-CPCM, SF, NACMEs, symmetry and pop. for TD-DFT,
                                                   nearIR, NL-DFT gradient (VV10), updates on ESD,
                                                   ML-optimized integration grids
   S Lehtola, MJT Oliveira, MAL Marques          : LibXC Library
   Liviu Ungur et al                             : ANISO software


 Your calculation uses the libint2 library for the computation of 2-el integrals
 For citations please refer to: http://libint.valeyev.net

 Your ORCA version has been built with support for libXC version: 5.1.0
 For citations please refer to: https://tddft.org/programs/libxc/

 This ORCA versions uses:
   CBLAS   interface :  Fast vector & matrix operations
   LAPACKE interface :  Fast linear algebra routines
   Shared memory     :  Shared parallel matrices


================================================================================

----- Orbital basis set information -----
Your calculation utilizes the basis: 6-311+G**
   H, Li - Ne  : R. Krishnan, J. S. Binkley, R. Seeger and J. A. Pople, J. Chem. Phys. 72, 650 (1980).
   Na - Ar     : A. D. McLean and G. S. Chandler J. Chem. Phys. 72, 5639, (1980).
   K  - Ca     : J.-P. Blaudeau, M. P. McGrath, L. A. Curtiss and L. Radom, J. Chem. Phys. 107, 5016 (1997).
   Ga - Kr     : L. A. Curtiss, M. P. McGrath, J.-P. Blandeau, N. E. Davis, R. C. Binning and L. Radom, J. Chem. Phys. 103, 6104 (1995).
   Pol./Diff.
   H, Li - Cl  : T. Clark, J. Chandrasekhar and P. v. R. Schleyer, J. Comp. Chem. 4, 294 (1983).
   H - Ne      : M. J. Frisch, J. A. Pople and J. S. Binkley, J. Chem. Phys. 80, 3265 (1984).

----- AuxJ basis set information -----
Your calculation utilizes the auxiliary basis: def2/J
   F. Weigend, Phys. Chem. Chem. Phys. 8, 1057 (2006).

================================================================================
                                        WARNINGS
                       Please study these warnings very carefully!
================================================================================


WARNING: Geometry Optimization
  ===> : Switching off AutoStart
         For restart on a previous wavefunction, please use MOREAD

INFO   : the flag for use of the SHARK integral package has been found!

================================================================================
                                       INPUT FILE
================================================================================
NAME = Dexketoprofen\Dexketoprofen_PBE_6-311+G\Dexketoprofen_PBE_6-311+G.orcainp
|  1> # ORCA input file
|  2> # 
|  3> !PBE 6-311+G** Opt CPCM(WATER)
|  4> 
|  5> * xyz 0 1
|  6>    H        1.20551         0.10685         0.44594
|  7>    C        2.19632         0.04506        -0.02783
|  8>    C        3.21572        -0.37109         1.03186
|  9>    C        2.03439        -1.05108        -1.08502
| 10>    O        1.51321        -2.19903        -0.58151
| 11>    O        2.30324        -0.95546        -2.27392
| 12>    C        2.50710         1.44593        -0.54890
| 13>    C        3.40786         1.70154        -1.59807
| 14>    C        3.57635         3.00431        -2.10322
| 15>    C        2.93975         4.07783        -1.47365
| 16>    C        2.10702         3.84904        -0.38159
| 17>    C        1.88367         2.54538         0.06643
| 18>    C        4.40386         3.29606        -3.30921
| 19>    O        4.98348         4.37514        -3.39375
| 20>    C        4.52609         2.31329        -4.42517
| 21>    C        5.68066         2.33025        -5.21731
| 22>    C        5.84753         1.38292        -6.23056
| 23>    C        4.86240         0.42187        -6.45742
| 24>    C        3.69446         0.42873        -5.70106
| 25>    C        3.51418         1.38534        -4.70458
| 26>    H        2.94169        -1.32446         1.49691
| 27>    H        3.27834         0.37448         1.83212
| 28>    H        4.21497        -0.49366         0.60096
| 29>    H        1.29183        -2.17361         0.36870
| 30>    H        3.95639         0.87710        -2.04912
| 31>    H        3.08408         5.09274        -1.84030
| 32>    H        1.61795         4.68612         0.11116
| 33>    H        1.21218         2.39612         0.90952
| 34>    H        6.45597         3.07343        -5.04122
| 35>    H        6.75113         1.38817        -6.83519
| 36>    H        5.00308        -0.33209        -7.22859
| 37>    H        2.92174        -0.31696        -5.87375
| 38>    H        2.58039         1.38013        -4.14719
| 39> *
| 40> 
| 41>                          ****END OF INPUT****
================================================================================

                       *****************************
                       * Geometry Optimization Run *
                       *****************************

Geometry optimization settings:
Update method            Update   .... BFGS
Choice of coordinates    CoordSys .... Z-matrix Internals
Initial Hessian          InHess   .... Almoef's Model

Convergence Tolerances:
Energy Change            TolE     ....  5.0000e-06 Eh
Max. Gradient            TolMAXG  ....  3.0000e-04 Eh/bohr
RMS Gradient             TolRMSG  ....  1.0000e-04 Eh/bohr
Max. Displacement        TolMAXD  ....  4.0000e-03 bohr
RMS Displacement         TolRMSD  ....  2.0000e-03 bohr
Strict Convergence                ....  False
------------------------------------------------------------------------------
                        ORCA OPTIMIZATION COORDINATE SETUP
------------------------------------------------------------------------------

The optimization will be done in new redundant internal coordinates
Making redundant internal coordinates   ...  (new redundants) done
Evaluating the initial hessian          ...  (Almloef) done
Evaluating the coordinates              ...  done
Calculating the B-matrix                .... done
Calculating the G-matrix                .... done
Diagonalizing the G-matrix              .... done
Small eigenvalue found = 2.646e-03
Small eigenvalue found = 1.352e-02
Small eigenvalue found = 1.884e-02
Small eigenvalue found = 2.209e-02
The first mode is                       ....   75
The number of degrees of freedom        ....   93

    -----------------------------------------------------------------
                    Redundant Internal Coordinates


    -----------------------------------------------------------------
         Definition                    Initial Value    Approx d2E/dq
    -----------------------------------------------------------------
      1. B(C   1,H   0)                  1.1000         0.347123   
      2. B(C   2,C   1)                  1.5282         0.376096   
      3. B(C   3,C   1)                  1.5315         0.371565   
      4. B(O   4,C   3)                  1.3575         0.630447   
      5. B(O   5,C   3)                  1.2227         1.034784   
      6. B(C   6,C   1)                  1.5266         0.378258   
      7. B(C   7,C   6)                  1.4062         0.588648   
      8. B(C   8,C   7)                  1.4074         0.586108   
      9. B(C   9,C   8)                  1.3979         0.606973   
     10. B(C  10,C   9)                  1.3923         0.619638   
     11. B(C  11,C  10)                  1.3965         0.610115   
     12. B(C  11,C   6)                  1.4057         0.589708   
     13. B(C  12,C   8)                  1.4914         0.430473   
     14. B(O  13,C  12)                  1.2278         1.015401   
     15. B(C  14,C  12)                  1.4920         0.429498   
     16. B(C  15,C  14)                  1.4003         0.601624   
     17. B(C  16,C  15)                  1.3971         0.608657   
     18. B(C  17,C  16)                  1.3948         0.613798   
     19. B(C  18,C  17)                  1.3915         0.621413   
     20. B(C  19,C  18)                  1.3930         0.617845   
     21. B(C  19,C  14)                  1.4011         0.599799   
     22. B(H  20,C   2)                  1.0956         0.352804   
     23. B(H  21,C   2)                  1.0955         0.352843   
     24. B(H  22,C   2)                  1.0951         0.353443   
     25. B(H  23,O   4)                  0.9760         0.490295   
     26. B(H  24,C   7)                  1.0881         0.362579   
     27. B(H  25,C   9)                  1.0887         0.361801   
     28. B(H  26,C  10)                  1.0875         0.363399   
     29. B(H  27,C  11)                  1.0881         0.362612   
     30. B(H  28,C  15)                  1.0883         0.362336   
     31. B(H  29,C  16)                  1.0872         0.363765   
     32. B(H  30,C  17)                  1.0876         0.363242   
     33. B(H  31,C  18)                  1.0876         0.363229   
     34. B(H  32,C  19)                  1.0875         0.363411   
     35. A(C   2,C   1,C   3)          110.7512         0.363434   
     36. A(C   3,C   1,C   6)          116.2761         0.363790   
     37. A(H   0,C   1,C   2)          108.5114         0.322728   
     38. A(H   0,C   1,C   3)          104.0214         0.322087   
     39. A(H   0,C   1,C   6)          106.1905         0.323031   
     40. A(C   2,C   1,C   6)          110.5349         0.364545   
     41. A(C   1,C   2,H  21)          111.0595         0.323594   
     42. A(H  20,C   2,H  22)          107.3294         0.289060   
     43. A(C   1,C   2,H  20)          111.3751         0.323588   
     44. A(H  20,C   2,H  21)          107.2440         0.288983   
     45. A(H  21,C   2,H  22)          108.1464         0.289065   
     46. A(C   1,C   2,H  22)          111.4888         0.323684   
     47. A(O   4,C   3,O   5)          120.7440         0.471577   
     48. A(C   1,C   3,O   5)          126.3007         0.431245   
     49. A(C   1,C   3,O   4)          112.9418         0.394935   
     50. A(C   3,O   4,H  23)          115.2239         0.367455   
     51. A(C   7,C   6,C  11)          117.9369         0.426192   
     52. A(C   1,C   6,C  11)          118.5554         0.394074   
     53. A(C   1,C   6,C   7)          123.4947         0.393950   
     54. A(C   8,C   7,H  24)          119.4858         0.349977   
     55. A(C   6,C   7,C   8)          120.8460         0.425725   
     56. A(C   6,C   7,H  24)          119.6335         0.350233   
     57. A(C   7,C   8,C   9)          119.6500         0.428070   
     58. A(C   9,C   8,C  12)          117.8162         0.405193   
     59. A(C   7,C   8,C  12)          122.5297         0.402700   
     60. A(C   8,C   9,C  10)          119.9637         0.432366   
     61. A(C  10,C   9,H  25)          119.7779         0.353156   
     62. A(C   8,C   9,H  25)          120.2554         0.351924   
     63. A(C   9,C  10,H  26)          119.8606         0.353419   
     64. A(C  11,C  10,H  26)          120.0840         0.352494   
     65. A(C   9,C  10,C  11)          120.0475         0.432768   
     66. A(C  10,C  11,H  27)          118.3814         0.352365   
     67. A(C   6,C  11,H  27)          120.3686         0.350345   
     68. A(C   6,C  11,C  10)          121.2499         0.428937   
     69. A(O  13,C  12,C  14)          119.2564         0.441144   
     70. A(C   8,C  12,C  14)          121.4271         0.381385   
     71. A(C   8,C  12,O  13)          119.3099         0.441325   
     72. A(C  15,C  14,C  19)          119.3863         0.429164   
     73. A(C  12,C  14,C  19)          121.7511         0.404182   
     74. A(C  12,C  14,C  15)          118.8607         0.404399   
     75. A(C  14,C  15,C  16)          120.0353         0.430295   
     76. A(C  16,C  15,H  28)          119.6884         0.352177   
     77. A(C  14,C  15,H  28)          120.2734         0.351485   
     78. A(C  15,C  16,C  17)          120.0520         0.431846   
     79. A(C  17,C  16,H  29)          119.9904         0.352913   
     80. A(C  15,C  16,H  29)          119.9541         0.352411   
     81. A(C  16,C  17,C  18)          120.0665         0.433459   
     82. A(C  18,C  17,H  30)          119.8275         0.353565   
     83. A(C  16,C  17,H  30)          120.1055         0.352827   
     84. A(C  17,C  18,C  19)          120.0553         0.433972   
     85. A(C  19,C  18,H  31)          119.5009         0.353218   
     86. A(C  17,C  18,H  31)          120.4400         0.353562   
     87. A(C  14,C  19,C  18)          120.2640         0.431219   
     88. A(C  18,C  19,H  32)          118.3244         0.353248   
     89. A(C  14,C  19,H  32)          121.4058         0.351481   
     90. D(H  20,C   2,C   1,C   3)    -56.1226         0.011286   
     91. D(H  22,C   2,C   1,H   0)    177.3188         0.011286   
     92. D(H  21,C   2,C   1,C   3)   -175.5837         0.011286   
     93. D(H  21,C   2,C   1,H   0)    -62.0001         0.011286   
     94. D(H  21,C   2,C   1,C   6)     54.0664         0.011286   
     95. D(H  20,C   2,C   1,C   6)    173.5275         0.011286   
     96. D(H  22,C   2,C   1,C   6)    -66.6147         0.011286   
     97. D(H  20,C   2,C   1,H   0)     57.4611         0.011286   
     98. D(H  22,C   2,C   1,C   3)     63.7352         0.011286   
     99. D(O   5,C   3,C   1,C   2)   -116.7442         0.010333   
    100. D(O   5,C   3,C   1,H   0)    126.8604         0.010333   
    101. D(O   4,C   3,C   1,C   6)   -168.1495         0.010333   
    102. D(O   4,C   3,C   1,C   2)     64.5929         0.010333   
    103. D(O   5,C   3,C   1,C   6)     10.5134         0.010333   
    104. D(O   4,C   3,C   1,H   0)    -51.8025         0.010333   
    105. D(H  23,O   4,C   3,O   5)   -177.3659         0.029233   
    106. D(H  23,O   4,C   3,C   1)      1.3803         0.029233   
    107. D(C  11,C   6,C   1,C   2)    -92.6210         0.010683   
    108. D(C  11,C   6,C   1,H   0)     24.8820         0.010683   
    109. D(C   7,C   6,C   1,C   3)    -41.3302         0.010683   
    110. D(C  11,C   6,C   1,C   3)    140.0144         0.010683   
    111. D(C   7,C   6,C   1,C   2)     86.0344         0.010683   
    112. D(C   7,C   6,C   1,H   0)   -156.4626         0.010683   
    113. D(H  24,C   7,C   6,C  11)    175.8984         0.023840   
    114. D(H  24,C   7,C   6,C   1)     -2.7649         0.023840   
    115. D(C   8,C   7,C   6,C  11)     -6.2538         0.023840   
    116. D(C   8,C   7,C   6,C   1)    175.0830         0.023840   
    117. D(C  12,C   8,C   7,H  24)      4.7833         0.023625   
    118. D(C  12,C   8,C   7,C   6)   -173.0677         0.023625   
    119. D(C   9,C   8,C   7,H  24)   -175.9624         0.023625   
    120. D(C   9,C   8,C   7,C   6)      6.1865         0.023625   
    121. D(H  25,C   9,C   8,C  12)     -2.3134         0.025430   
    122. D(H  25,C   9,C   8,C   7)    178.3976         0.025430   
    123. D(C  10,C   9,C   8,C  12)    177.0477         0.025430   
    124. D(C  10,C   9,C   8,C   7)     -2.2414         0.025430   
    125. D(H  26,C  10,C   9,H  25)     -1.0521         0.026566   
    126. D(H  26,C  10,C   9,C   8)    179.5838         0.026566   
    127. D(C  11,C  10,C   9,H  25)    177.9273         0.026566   
    128. D(C  11,C  10,C   9,C   8)     -1.4368         0.026566   
    129. D(H  27,C  11,C  10,C   9)   -178.7815         0.025709   
    130. D(C   6,C  11,C  10,H  26)   -179.7456         0.025709   
    131. D(C   6,C  11,C  10,C   9)      1.2774         0.025709   
    132. D(H  27,C  11,C   6,C   7)   -177.4057         0.023930   
    133. D(H  27,C  11,C   6,C   1)      1.3251         0.023930   
    134. D(C  10,C  11,C   6,C   7)      2.5342         0.023930   
    135. D(H  27,C  11,C  10,H  26)      0.1955         0.025709   
    136. D(C  10,C  11,C   6,C   1)   -178.7349         0.023930   
    137. D(C  14,C  12,C   8,C   9)   -147.5265         0.012660   
    138. D(C  14,C  12,C   8,C   7)     31.7407         0.012660   
    139. D(O  13,C  12,C   8,C   9)     31.5289         0.012660   
    140. D(O  13,C  12,C   8,C   7)   -149.2039         0.012660   
    141. D(C  19,C  14,C  12,O  13)   -151.5207         0.012605   
    142. D(C  19,C  14,C  12,C   8)     27.5353         0.012605   
    143. D(C  15,C  14,C  12,O  13)     27.9862         0.012605   
    144. D(C  15,C  14,C  12,C   8)   -152.9578         0.012605   
    145. D(H  28,C  15,C  14,C  19)    177.2801         0.024959   
    146. D(H  28,C  15,C  14,C  12)     -2.2387         0.024959   
    147. D(C  16,C  15,C  14,C  19)     -3.3333         0.024959   
    148. D(C  16,C  15,C  14,C  12)    177.1479         0.024959   
    149. D(H  29,C  16,C  15,H  28)      0.2926         0.025579   
    150. D(H  29,C  16,C  15,C  14)   -179.0976         0.025579   
    151. D(C  17,C  16,C  15,H  28)    179.6058         0.025579   
    152. D(C  17,C  16,C  15,C  14)      0.2156         0.025579   
    153. D(H  30,C  17,C  16,H  29)      0.9206         0.026039   
    154. D(H  30,C  17,C  16,C  15)   -178.3923         0.026039   
    155. D(C  18,C  17,C  16,H  29)   -178.8178         0.026039   
    156. D(C  18,C  17,C  16,C  15)      1.8693         0.026039   
    157. D(H  31,C  18,C  17,H  30)      0.1776         0.026728   
    158. D(H  31,C  18,C  17,C  16)    179.9167         0.026728   
    159. D(C  19,C  18,C  17,H  30)    179.4624         0.026728   
    160. D(C  19,C  18,C  17,C  16)     -0.7984         0.026728   
    161. D(H  32,C  19,C  18,C  17)    178.5074         0.026404   
    162. D(C  14,C  19,C  18,H  31)    176.9310         0.026404   
    163. D(C  14,C  19,C  18,C  17)     -2.3606         0.026404   
    164. D(H  32,C  19,C  14,C  15)   -176.4825         0.024800   
    165. D(H  32,C  19,C  14,C  12)      3.0219         0.024800   
    166. D(C  18,C  19,C  14,C  15)      4.4127         0.024800   
    167. D(H  32,C  19,C  18,H  31)     -2.2011         0.026404   
    168. D(C  18,C  19,C  14,C  12)   -176.0829         0.024800   
    -----------------------------------------------------------------

Number of atoms                         .... 33
Number of degrees of freedom            .... 168

         *************************************************************
         *                GEOMETRY OPTIMIZATION CYCLE   1            *
         *************************************************************
---------------------------------
CARTESIAN COORDINATES (ANGSTROEM)
---------------------------------
  H      1.205510    0.106850    0.445940
  C      2.196320    0.045060   -0.027830
  C      3.215720   -0.371090    1.031860
  C      2.034390   -1.051080   -1.085020
  O      1.513210   -2.199030   -0.581510
  O      2.303240   -0.955460   -2.273920
  C      2.507100    1.445930   -0.548900
  C      3.407860    1.701540   -1.598070
  C      3.576350    3.004310   -2.103220
  C      2.939750    4.077830   -1.473650
  C      2.107020    3.849040   -0.381590
  C      1.883670    2.545380    0.066430
  C      4.403860    3.296060   -3.309210
  O      4.983480    4.375140   -3.393750
  C      4.526090    2.313290   -4.425170
  C      5.680660    2.330250   -5.217310
  C      5.847530    1.382920   -6.230560
  C      4.862400    0.421870   -6.457420
  C      3.694460    0.428730   -5.701060
  C      3.514180    1.385340   -4.704580
  H      2.941690   -1.324460    1.496910
  H      3.278340    0.374480    1.832120
  H      4.214970   -0.493660    0.600960
  H      1.291830   -2.173610    0.368700
  H      3.956390    0.877100   -2.049120
  H      3.084080    5.092740   -1.840300
  H      1.617950    4.686120    0.111160
  H      1.212180    2.396120    0.909520
  H      6.455970    3.073430   -5.041220
  H      6.751130    1.388170   -6.835190
  H      5.003080   -0.332090   -7.228590
  H      2.921740   -0.316960   -5.873750
  H      2.580390    1.380130   -4.147190

----------------------------
CARTESIAN COORDINATES (A.U.)
----------------------------
  NO LB      ZA    FRAG     MASS         X           Y           Z
   0 H     1.0000    0     1.008    2.278084    0.201917    0.842704
   1 C     6.0000    0    12.011    4.150443    0.085151   -0.052591
   2 C     6.0000    0    12.011    6.076830   -0.701258    1.949933
   3 C     6.0000    0    12.011    3.844440   -1.986253   -2.050391
   4 O     8.0000    0    15.999    2.859552   -4.155564   -1.098895
   5 O     8.0000    0    15.999    4.352493   -1.805558   -4.297086
   6 C     6.0000    0    12.011    4.737732    2.732412   -1.037271
   7 C     6.0000    0    12.011    6.439922    3.215445   -3.019915
   8 C     6.0000    0    12.011    6.758322    5.677323   -3.974510
   9 C     6.0000    0    12.011    5.555322    7.705982   -2.784795
  10 C     6.0000    0    12.011    3.981691    7.273631   -0.721101
  11 C     6.0000    0    12.011    3.559620    4.810071    0.125535
  12 C     6.0000    0    12.011    8.322089    6.228651   -6.253501
  13 O     8.0000    0    15.999    9.417412    8.267816   -6.413258
  14 C     6.0000    0    12.011    8.553071    4.371485   -8.362359
  15 C     6.0000    0    12.011   10.734892    4.403534   -9.859287
  16 C     6.0000    0    12.011   11.050230    2.613340  -11.774052
  17 C     6.0000    0    12.011    9.188604    0.797219  -12.202755
  18 C     6.0000    0    12.011    6.981518    0.810182  -10.773442
  19 C     6.0000    0    12.011    6.640838    2.617913   -8.890368
  20 H     1.0000    0     1.008    5.558988   -2.502867    2.828750
  21 H     1.0000    0     1.008    6.195165    0.707665    3.462205
  22 H     1.0000    0     1.008    7.965139   -0.932882    1.135650
  23 H     1.0000    0     1.008    2.441205   -4.107528    0.696742
  24 H     1.0000    0     1.008    7.476494    1.657479   -3.872276
  25 H     1.0000    0     1.008    5.828067    9.623884   -3.477663
  26 H     1.0000    0     1.008    3.057482    8.855483    0.210062
  27 H     1.0000    0     1.008    2.290688    4.528011    1.718744
  28 H     1.0000    0     1.008   12.200015    5.807941   -9.526525
  29 H     1.0000    0     1.008   12.757787    2.623261  -12.916637
  30 H     1.0000    0     1.008    9.454451   -0.627559  -13.660055
  31 H     1.0000    0     1.008    5.521288   -0.598968  -11.099779
  32 H     1.0000    0     1.008    4.876230    2.608068   -7.837053

--------------------------------
INTERNAL COORDINATES (ANGSTROEM)
--------------------------------
 H      0   0   0     0.000000000000     0.00000000     0.00000000
 C      1   0   0     1.099991124101     0.00000000     0.00000000
 C      2   1   0     1.528168864557   108.51135774     0.00000000
 C      2   1   3     1.531468223830   104.02143771   117.95178597
 O      4   2   1     1.357549304814   112.94180549   308.19749142
 O      4   2   1     1.222663779172   126.30068558   126.86040679
 C      2   1   3     1.526608957854   106.19054680   241.15726338
 C      7   2   1     1.406222862351   123.49467201   203.53742126
 C      8   7   2     1.407400112086   120.84601518   175.08302848
 C      9   8   7     1.397878083132   119.65003115     6.18653743
 C     10   9   8     1.392256858701   119.96366075   357.75859134
 C     11  10   9     1.396472892146   120.04747596   358.56316984
 C      9   8   7     1.491409649526   122.52974363   186.93231052
 O     13   9   8     1.227811061361   119.30987539   210.79614652
 C     13   9   8     1.492026731463   121.42707350    31.74070861
 C     15  13   9     1.400287579785   118.86073136   207.04217239
 C     16  15  13     1.397123934481   120.03533150   177.14790203
 C     17  16  15     1.394834642171   120.05196722     0.21560755
 C     18  17  16     1.391478117974   120.06653208     1.86926396
 C     19  18  17     1.393045570288   120.05530666   359.20157175
 H      3   2   1     1.095572133773   111.37514923    57.46107069
 H      3   2   1     1.095541855385   111.05952505   297.99994094
 H      3   2   1     1.095079347536   111.48878184   177.31884462
 H      5   4   2     0.975988895890   115.22392742     1.38027354
 H      8   7   2     1.088132610025   119.63352360   357.23514979
 H     10   9   8     1.088717447045   120.25536691   178.39756324
 H     11  10   9     1.087517794705   119.86063226   179.58382038
 H     12  11  10     1.088107584662   118.38138583   181.21845967
 H     16  15  13     1.088315118245   120.27340199   357.76132217
 H     17  16  15     1.087243284366   119.95405175   180.90240607
 H     18  17  16     1.087634917102   120.10547744   181.60769337
 H     19  18  17     1.087644983715   120.43997487   179.91671034
 H     20  19  18     1.087508400105   118.32441656   178.50735426

---------------------------
INTERNAL COORDINATES (A.U.)
---------------------------
 H      0   0   0     0.000000000000     0.00000000     0.00000000
 C      1   0   0     2.078681974294     0.00000000     0.00000000
 C      2   1   0     2.887820640397   108.51135774     0.00000000
 C      2   1   3     2.894055525841   104.02143771   117.95178597
 O      4   2   1     2.565396399393   112.94180549   308.19749142
 O      4   2   1     2.310499696501   126.30068558   126.86040679
 C      2   1   3     2.884872843935   106.19054680   241.15726338
 C      7   2   1     2.657376093103   123.49467201   203.53742126
 C      8   7   2     2.659600772693   120.84601518   175.08302848
 C      9   8   7     2.641606745730   119.65003115     6.18653743
 C     10   9   8     2.630984171018   119.96366075   357.75859134
 C     11  10   9     2.638951319602   120.04747596   358.56316984
 C      9   8   7     2.818355791092   122.52974363   186.93231052
 O     13   9   8     2.320226650171   119.30987539   210.79614652
 C     13   9   8     2.819521906955   121.42707350    31.74070861
 C     15  13   9     2.646160034525   118.86073136   207.04217239
 C     16  15  13     2.640181611316   120.03533150   177.14790203
 C     17  16  15     2.635855475809   120.05196722     0.21560755
 C     18  17  16     2.629512564315   120.06653208     1.86926396
 C     19  18  17     2.632474619917   120.05530666   359.20157175
 H      3   2   1     2.070331292787   111.37514923    57.46107069
 H      3   2   1     2.070274074925   111.05952505   297.99994094
 H      3   2   1     2.069400061756   111.48878184   177.31884462
 H      5   4   2     1.844351722980   115.22392742     1.38027354
 H      8   7   2     2.056272630336   119.63352360   357.23514979
 H     10   9   8     2.057377812137   120.25536691   178.39756324
 H     11  10   9     2.055110797758   119.86063226   179.58382038
 H     12  11  10     2.056225339255   118.38138583   181.21845967
 H     16  15  13     2.056617520889   120.27340199   357.76132217
 H     17  16  15     2.054592048398   119.95405175   180.90240607
 H     18  17  16     2.055332127013   120.10547744   181.60769337
 H     19  18  17     2.055351150154   120.43997487   179.91671034
 H     20  19  18     2.055093044538   118.32441656   178.50735426

---------------------
BASIS SET INFORMATION
---------------------
There are 3 groups of distinct atoms

 Group   1 Type H   : 5s1p contracted to 3s1p pattern {311/1}
 Group   2 Type C   : 12s6p1d contracted to 5s4p1d pattern {63111/3111/1}
 Group   3 Type O   : 12s6p1d contracted to 5s4p1d pattern {63111/3111/1}

Atom   0H    basis set group =>   1
Atom   1C    basis set group =>   2
Atom   2C    basis set group =>   2
Atom   3C    basis set group =>   2
Atom   4O    basis set group =>   3
Atom   5O    basis set group =>   3
Atom   6C    basis set group =>   2
Atom   7C    basis set group =>   2
Atom   8C    basis set group =>   2
Atom   9C    basis set group =>   2
Atom  10C    basis set group =>   2
Atom  11C    basis set group =>   2
Atom  12C    basis set group =>   2
Atom  13O    basis set group =>   3
Atom  14C    basis set group =>   2
Atom  15C    basis set group =>   2
Atom  16C    basis set group =>   2
Atom  17C    basis set group =>   2
Atom  18C    basis set group =>   2
Atom  19C    basis set group =>   2
Atom  20H    basis set group =>   1
Atom  21H    basis set group =>   1
Atom  22H    basis set group =>   1
Atom  23H    basis set group =>   1
Atom  24H    basis set group =>   1
Atom  25H    basis set group =>   1
Atom  26H    basis set group =>   1
Atom  27H    basis set group =>   1
Atom  28H    basis set group =>   1
Atom  29H    basis set group =>   1
Atom  30H    basis set group =>   1
Atom  31H    basis set group =>   1
Atom  32H    basis set group =>   1
---------------------------------
AUXILIARY/J BASIS SET INFORMATION
---------------------------------
There are 3 groups of distinct atoms

 Group   1 Type H   : 5s2p1d contracted to 3s1p1d pattern {311/2/1}
 Group   2 Type C   : 12s5p4d2f1g contracted to 6s4p3d1f1g pattern {711111/2111/211/2/1}
 Group   3 Type O   : 12s5p4d2f1g contracted to 6s4p3d1f1g pattern {711111/2111/211/2/1}

Atom   0H    basis set group =>   1
Atom   1C    basis set group =>   2
Atom   2C    basis set group =>   2
Atom   3C    basis set group =>   2
Atom   4O    basis set group =>   3
Atom   5O    basis set group =>   3
Atom   6C    basis set group =>   2
Atom   7C    basis set group =>   2
Atom   8C    basis set group =>   2
Atom   9C    basis set group =>   2
Atom  10C    basis set group =>   2
Atom  11C    basis set group =>   2
Atom  12C    basis set group =>   2
Atom  13O    basis set group =>   3
Atom  14C    basis set group =>   2
Atom  15C    basis set group =>   2
Atom  16C    basis set group =>   2
Atom  17C    basis set group =>   2
Atom  18C    basis set group =>   2
Atom  19C    basis set group =>   2
Atom  20H    basis set group =>   1
Atom  21H    basis set group =>   1
Atom  22H    basis set group =>   1
Atom  23H    basis set group =>   1
Atom  24H    basis set group =>   1
Atom  25H    basis set group =>   1
Atom  26H    basis set group =>   1
Atom  27H    basis set group =>   1
Atom  28H    basis set group =>   1
Atom  29H    basis set group =>   1
Atom  30H    basis set group =>   1
Atom  31H    basis set group =>   1
Atom  32H    basis set group =>   1
------------------------------------------------------------------------------
                           ORCA GTO INTEGRAL CALCULATION
                           -- RI-GTO INTEGRALS CHOSEN --
------------------------------------------------------------------------------
------------------------------------------------------------------------------
                   ___                                                        
                  /   \      - P O W E R E D   B Y -                         
                 /     \                                                     
                 |  |  |   _    _      __       _____    __    __             
                 |  |  |  | |  | |    /  \     |  _  \  |  |  /  |          
                  \  \/   | |  | |   /    \    | | | |  |  | /  /          
                 / \  \   | |__| |  /  /\  \   | |_| |  |  |/  /          
                |  |  |   |  __  | /  /__\  \  |    /   |      \           
                |  |  |   | |  | | |   __   |  |    \   |  |\   \          
                \     /   | |  | | |  |  |  |  | |\  \  |  | \   \       
                 \___/    |_|  |_| |__|  |__|  |_| \__\ |__|  \__/        
                                                                              
                      - O R C A' S   B I G   F R I E N D -                    
                                      &                                       
                       - I N T E G R A L  F E E D E R -                       
                                                                              
 v1 FN, 2020, v2 2021                                                         
------------------------------------------------------------------------------


Reading SHARK input file Dexketoprofen\Dexketoprofen_PBE_6-311+G\Dexketoprofen_PBE_6-311+G.orcainp.SHARKINP.tmp ... ok
----------------------
SHARK INTEGRAL PACKAGE
----------------------

Number of atoms                             ...     33
Number of basis functions                   ...    502
Number of shells                            ...    246
Maximum angular momentum                    ...      2
Integral batch strategy                     ... SHARK/LIBINT Hybrid
RI-J (if used) integral strategy            ... SPLIT-RIJ (Revised 2003 algorithm where possible)
Printlevel                                  ...      1
Contraction scheme used                     ... SEGMENTED contraction
Coulomb Range Separation                    ... NOT USED
Exchange Range Separation                   ... NOT USED
Finite Nucleus Model                        ... NOT USED
Auxiliary Coulomb fitting basis             ... AVAILABLE
   # of basis functions in Aux-J            ...   1085
   # of shells in Aux-J                     ...    355
   Maximum angular momentum in Aux-J        ...      4
Auxiliary J/K fitting basis                 ... NOT available
Auxiliary Correlation fitting basis         ... NOT available
Auxiliary 'external' fitting basis          ... NOT available
Integral threshold                          ...     2.500000e-11
Primitive cut-off                           ...     2.500000e-12
Primitive pair pre-selection threshold      ...     2.500000e-12

Calculating pre-screening integrals         ... done (  0.0 sec) Dimension = 246
Organizing shell pair data                  ... done (  0.1 sec)
Shell pair information
Total number of shell pairs                 ...     30381
Shell pairs after pre-screening             ...     23843
Total number of primitive shell pairs       ...     99676
Primitive shell pairs kept                  ...     52471
          la=0 lb=0:   7215 shell pairs
          la=1 lb=0:   9881 shell pairs
          la=1 lb=1:   3417 shell pairs
          la=2 lb=0:   1876 shell pairs
          la=2 lb=1:   1320 shell pairs
          la=2 lb=2:    134 shell pairs

Calculating one electron integrals          ... done (  0.0 sec)
Calculating RI/J V-Matrix + Cholesky decomp.... done (  0.0 sec)
Calculating Nuclear repulsion               ... done (  0.0 sec) ENN=   1331.240257590276 Eh

SHARK setup successfully completed in   0.3 seconds

Maximum memory used throughout the entire GTOINT-calculation: 115.5 MB
-------------------------------------------------------------------------------
                                 ORCA SCF
-------------------------------------------------------------------------------

------------
SCF SETTINGS
------------
Hamiltonian:
 Density Functional     Method          .... DFT(GTOs)
 Exchange Functional    Exchange        .... PBE
   PBE kappa parameter   XKappa         ....  0.804000
   PBE mue parameter    XMuePBE         ....  0.219520
 Correlation Functional Correlation     .... PBE
   PBE beta parameter  CBetaPBE         ....  0.066725
 LDA part of GGA corr.  LDAOpt          .... PW91-LDA
 Gradients option       PostSCFGGA      .... off
   Density functional embedding theory  .... OFF
   NL short-range parameter             ....  6.400000
 RI-approximation to the Coulomb term is turned on
   Number of AuxJ basis functions       .... 1085


General Settings:
 Integral files         IntName         .... Dexketoprofen\Dexketoprofen_PBE_6-311+G\Dexketoprofen_PBE_6-311+G.orcainp
 Hartree-Fock type      HFTyp           .... RHF
 Total Charge           Charge          ....    0
 Multiplicity           Mult            ....    1
 Number of Electrons    NEL             ....  134
 Basis Dimension        Dim             ....  502
 Nuclear Repulsion      ENuc            ....   1331.2402575903 Eh

Convergence Acceleration:
 DIIS                   CNVDIIS         .... on
   Start iteration      DIISMaxIt       ....    12
   Startup error        DIISStart       ....  0.200000
   # of expansion vecs  DIISMaxEq       ....     5
   Bias factor          DIISBfac        ....   1.050
   Max. coefficient     DIISMaxC        ....  10.000
 Trust-Rad. Augm. Hess. CNVTRAH         .... auto
   Auto Start mean grad. ratio tolernc. ....  1.125000
   Auto Start start iteration           ....    20
   Auto Start num. interpolation iter.  ....    10
   Max. Number of Micro iterations      ....    16
   Max. Number of Macro iterations      .... Maxiter - #DIIS iter
   Number of Davidson start vectors     ....     2
   Converg. threshold I  (grad. norm)   ....   1.000e-05
   Converg. threshold II (energy diff.) ....   1.000e-08
   Grad. Scal. Fac. for Micro threshold ....   0.100
   Minimum threshold for Micro iter.    ....   0.010
   NR start threshold (gradient norm)   ....   0.001
   Initial trust radius                 ....   0.400
   Minimum AH scaling param. (alpha)    ....   1.000
   Maximum AH scaling param. (alpha)    .... 1000.000
   Orbital update algorithm             .... Taylor
   White noise on init. David. guess    .... on
   Maximum white noise                  ....   0.010
   Quad. conv. algorithm                .... NR
 SOSCF                  CNVSOSCF        .... on
   Start iteration      SOSCFMaxIt      ....   150
   Startup grad/error   SOSCFStart      ....  0.003300
 Level Shifting         CNVShift        .... on
   Level shift para.    LevelShift      ....    0.2500
   Turn off err/grad.   ShiftErr        ....    0.0010
 Zerner damping         CNVZerner       .... off
 Static damping         CNVDamp         .... on
   Fraction old density DampFac         ....    0.7000
   Max. Damping (<1)    DampMax         ....    0.9800
   Min. Damping (>=0)   DampMin         ....    0.0000
   Turn off err/grad.   DampErr         ....    0.1000
 Fernandez-Rico         CNVRico         .... off

SCF Procedure:
 Maximum # iterations   MaxIter         ....   125
 SCF integral mode      SCFMode         .... Direct
   Integral package                     .... SHARK and LIBINT hybrid scheme
 Reset frequency        DirectResetFreq ....    20
 Integral Threshold     Thresh          ....  2.500e-11 Eh
 Primitive CutOff       TCut            ....  2.500e-12 Eh

Convergence Tolerance:
 Convergence Check Mode ConvCheckMode   .... Total+1el-Energy
 Convergence forced     ConvForced      .... 0
 Energy Change          TolE            ....  1.000e-08 Eh
 1-El. energy change                    ....  1.000e-05 Eh
 Orbital Gradient       TolG            ....  1.000e-05
 Orbital Rotation angle TolX            ....  1.000e-05
 DIIS Error             TolErr          ....  5.000e-07


Diagonalization of the overlap matrix:
Smallest eigenvalue                        ... 5.447e-07
Time for diagonalization                   ...    0.013 sec
Threshold for overlap eigenvalues          ... 1.000e-08
Number of eigenvalues below threshold      ... 0
Time for construction of square roots      ...    0.010 sec
Total time needed                          ...    0.023 sec

Time for model grid setup =    0.382 sec

------------------------------
INITIAL GUESS: MODEL POTENTIAL
------------------------------
Loading Hartree-Fock densities                     ... done
Calculating cut-offs                               ... done
Initializing the effective Hamiltonian             ... done
Setting up the integral package (SHARK)            ... done
Starting the Coulomb interaction                   ... done (   0.6 sec)
Reading the grid                                   ... done
Mapping shells                                     ... done
Starting the XC term evaluation                    ... done (   0.6 sec)
  promolecular density results
     # of electrons  =    134.002032116
     EX              =   -110.376199991
     EC              =     -4.478339019
     EX+EC           =   -114.854539010
Transforming the Hamiltonian                       ... done (   0.0 sec)
Diagonalizing the Hamiltonian                      ... done (   0.0 sec)
Back transforming the eigenvectors                 ... done (   0.0 sec)
Now organizing SCF variables                       ... done
                      ------------------
                      INITIAL GUESS DONE (   1.6 sec)
                      ------------------
-------------------
DFT GRID GENERATION
-------------------

General Integration Accuracy     IntAcc      ... 4.388
Radial Grid Type                 RadialGrid  ... OptM3 with GC (2021)
Angular Grid (max. ang.)         AngularGrid ... 4 (Lebedev-302)
Angular grid pruning method      GridPruning ... 4 (adaptive)
Weight generation scheme         WeightScheme... Becke
Basis function cutoff            BFCut       ... 1.0000e-11
Integration weight cutoff        WCut        ... 1.0000e-14
Angular grids for H and He will be reduced by one unit
Partially contracted basis set               ... off
Rotationally invariant grid construction     ... off

Total number of grid points                  ...   163129
Total number of batches                      ...     2565
Average number of points per batch           ...       63
Average number of grid points per atom       ...     4943
Time for grid setup =    1.277 sec


--------------------
CPCM SOLVATION MODEL
--------------------
CPCM parameters:
  Epsilon                                         ...      80.4000
  Refrac                                          ...       1.3300
  Rsolv                                           ...       1.3000
  Surface type                                    ... GAUSSIAN VDW
  Epsilon function type                           ...         CPCM
Radii:
 Radius for H  used is    2.4944 Bohr (=   1.3200 Ang.)
 Radius for C  used is    3.8550 Bohr (=   2.0400 Ang.)
 Radius for O  used is    3.4469 Bohr (=   1.8240 Ang.)
Calculating surface                               ...        done! (  0.0s)
GEPOL surface points                              ...         1766
GEPOL Volume                                      ...    2090.2735
GEPOL Surface-area                                ...    1070.1117
Calculating surface distance matrix               ...        done! (  0.0s)
Performing Cholesky decomposition & store         ...        done! (  0.0s)
Overall time for CPCM initialization              ...                 0.1s
--------------
SCF ITERATIONS
--------------
ITER       Energy         Delta-E        Max-DP      RMS-DP      [F,P]     Damp
               ***  Starting incremental Fock matrix formation  ***
  0   -842.6156102377   0.000000000000 2.09252303  0.01196943  0.2858202 0.7000
  1   -842.8284780457  -0.212867808061 1.17770822  0.00833942  0.0799085 0.7000
                               ***Turning on DIIS***
  2   -842.8951148553  -0.066636809614 2.73340094  0.01951265  0.0252669 0.0000
  3   -843.0161609358  -0.121046080478 0.97901349  0.00700980  0.0509142 0.0000
  4   -843.0388987619  -0.022737826121 0.58983709  0.00406625  0.0310368 0.0000
  5   -843.0426363857  -0.003737623788 0.18051866  0.00122117  0.0052476 0.0000
                      *** Initiating the SOSCF procedure ***
                           *** Shutting down DIIS ***
                      *** Re-Reading the Fockian *** 
                      *** Removing any level shift *** 
ITER      Energy       Delta-E        Grad      Rot      Max-DP    RMS-DP
  6   -843.04276650  -0.0001301185  0.000355  0.000355  0.201320  0.001198
               *** Restarting incremental Fock matrix formation ***
  7   -843.04278492  -0.0000184158  0.000150  0.000695  0.296881  0.001956
  8   -843.04278185   0.0000030665  0.000295  0.000585  0.113114  0.000845
  9   -843.04278719  -0.0000053409  0.000061  0.000201  0.171664  0.001088
 10   -843.04278689   0.0000003060  0.000092  0.000124  0.149675  0.000624
 11   -843.04278737  -0.0000004833  0.000028  0.000061  0.148490  0.000945
 12   -843.04278729   0.0000000779  0.000042  0.000047  0.050445  0.000393
 13   -843.04278737  -0.0000000785  0.000007  0.000027  0.257853  0.001501
 14   -843.04278732   0.0000000475  0.000013  0.000017  0.111811  0.001019
 15   -843.04278737  -0.0000000450  0.000004  0.000012  0.195755  0.001356
 16   -843.04278739  -0.0000000236  0.000008  0.000012  0.256663  0.001615
 17   -843.04278740  -0.0000000038  0.000008  0.000010  0.246911  0.001479
 18   -843.04278737   0.0000000311  0.000008  0.000030  1.286459  0.005673
 19   -843.04278716   0.0000002028  0.000024  0.000027  0.703670  0.003562
 20   -843.04278736  -0.0000001933  0.000003  0.000005  0.104201  0.000655
 21   -843.04278737  -0.0000000164  0.000005  0.000012  0.339139  0.002251

 WARNING: the maximum gradient error descreased on average only by a factor   1.0
          during the last 20 iterations

                      *** Initiating the TRAH-SCF procedure ***

              ***Rediagonalizing the Fockian in SOSCF/NRSCF***

TRAH GRID
---------

General Integration Accuracy     IntAcc      ... 3.467
Radial Grid Type                 RadialGrid  ... OptM3 with GC (2021)
Angular Grid (max. ang.)         AngularGrid ... 1 (Lebedev-50)
Angular grid pruning method      GridPruning ... 4 (adaptive)
Weight generation scheme         WeightScheme... Becke
Basis function cutoff            BFCut       ... 1.0000e-11
Integration weight cutoff        WCut        ... 1.0000e-14
Angular grids for H and He will be reduced by one unit
Partially contracted basis set               ... off
Rotationally invariant grid construction     ... off

Total number of grid points                  ...    24121
Total number of batches                      ...      392
Average number of points per batch           ...       61
Average number of grid points per atom       ...      731

 --------------------------------------------------------------------------------------------
   Iter.        energy            ||Error||_2        Shift      TRadius  Mac/Mic        Rej.
 --------------------------------------------------------------------------------------------
    0       -843.042787332979     1.097508e-03                     0.400 (TRAH MAcro)   No
    0     dE    -1.060578e-07     1.767119e-03    -2.1212e-07      0.000 (TRAH MIcro)
    0     dE    -1.571937e-07     5.122252e-04    -3.1439e-07      0.000 (TRAH MIcro)
    0     dE    -1.636071e-07     8.186885e-05    -3.2721e-07      0.000 (TRAH MIcro)
    1       -843.042787521405     8.181933e-05                           (NR   MAcro)
    1     dE    -2.281261e-10     4.172988e-05                           (NR   MIcro)
    1     dE    -2.659457e-10     1.658259e-05                           (NR   MIcro)
    1     dE    -2.725875e-10     3.867335e-06                           (NR   MIcro)
    1     dE    -2.730687e-10     1.250475e-06                           (NR   MIcro)
    1     dE    -2.731158e-10     4.187155e-07                           (NR   MIcro)
    2       -843.042787521582     4.265353e-07                           (NR   MAcro)

               *****************************************************
               *                     SUCCESS                       *
               *           SCF CONVERGED AFTER  33 CYCLES          *
               *****************************************************


----------------
TOTAL SCF ENERGY
----------------

Total Energy       :         -843.04278752 Eh          -22940.36051 eV

Components:
Nuclear Repulsion  :         1331.24025759 Eh           36224.88905 eV
Electronic Energy  :        -2174.28304511 Eh          -59165.24956 eV
One Electron Energy:        -3790.06306959 Eh         -103132.85930 eV
Two Electron Energy:         1615.78002448 Eh           43967.60974 eV
CPCM Dielectric    :           -0.03217021 Eh              -0.87540 eV

Virial components:
Potential Energy   :        -1683.31466795 Eh          -45805.32081 eV
Kinetic Energy     :          840.27188042 Eh           22864.96030 eV
Virial Ratio       :            2.00329763


DFT components:
N(Alpha)           :       66.999989457217 electrons
N(Beta)            :       66.999989457217 electrons
N(Total)           :      133.999978914434 electrons
E(X)               :     -112.379873163711 Eh       
E(C)               :       -4.476203651194 Eh       
E(XC)              :     -116.856076814905 Eh       
DFET-embed. en.    :        0.000000000000 Eh       
CPCM Solvation Model Properties:
Surface-charge          :           -0.03342691
Charge-correction       :            0.00002137 Eh               0.00058 eV
Free-energy (cav+disp)  :  This term is not implemented in the current solvation scheme

---------------
SCF CONVERGENCE
---------------

  Last Energy change         ...   -1.7724e-10  Tolerance :   1.0000e-08
  Last Orbital Gradient      ...    4.2654e-07  Tolerance :   1.0000e-05
  Last Orbital Rotation      ...    1.0015e-05

             **** THE GBW FILE WAS UPDATED (Dexketoprofen\Dexketoprofen_PBE_6-311+G\Dexketoprofen_PBE_6-311+G.orcainp.gbw) ****
             **** DENSITY Dexketoprofen\Dexketoprofen_PBE_6-311+G\Dexketoprofen_PBE_6-311+G.orcainp.scfp WAS UPDATED ****
             **** ENERGY FILE WAS UPDATED (Dexketoprofen\Dexketoprofen_PBE_6-311+G\Dexketoprofen_PBE_6-311+G.orcainp.en.tmp) ****
             **** THE GBW FILE WAS UPDATED (Dexketoprofen\Dexketoprofen_PBE_6-311+G\Dexketoprofen_PBE_6-311+G.orcainp.gbw) ****
             **** DENSITY Dexketoprofen\Dexketoprofen_PBE_6-311+G\Dexketoprofen_PBE_6-311+G.orcainp.scfp WAS UPDATED ****
----------------
ORBITAL ENERGIES
----------------

  NO   OCC          E(Eh)            E(eV) 
   0   2.0000     -18.801445      -511.6133 
   1   2.0000     -18.749847      -510.2093 
   2   2.0000     -18.741187      -509.9736 
   3   2.0000     -10.023595      -272.7559 
   4   2.0000      -9.975252      -271.4404 
   5   2.0000      -9.917970      -269.8817 
   6   2.0000      -9.910494      -269.6783 
   7   2.0000      -9.904845      -269.5245 
   8   2.0000      -9.904670      -269.5198 
   9   2.0000      -9.899334      -269.3746 
  10   2.0000      -9.897467      -269.3238 
  11   2.0000      -9.897380      -269.3214 
  12   2.0000      -9.897033      -269.3120 
  13   2.0000      -9.895491      -269.2700 
  14   2.0000      -9.895435      -269.2685 
  15   2.0000      -9.893727      -269.2220 
  16   2.0000      -9.893360      -269.2120 
  17   2.0000      -9.892396      -269.1858 
  18   2.0000      -9.883566      -268.9455 
  19   2.0000      -1.021503       -27.7965 
  20   2.0000      -0.963747       -26.2249 
  21   2.0000      -0.945601       -25.7311 
  22   2.0000      -0.799569       -21.7574 
  23   2.0000      -0.792942       -21.5771 
  24   2.0000      -0.743747       -20.2384 
  25   2.0000      -0.710145       -19.3240 
  26   2.0000      -0.689522       -18.7628 
  27   2.0000      -0.684359       -18.6223 
  28   2.0000      -0.674564       -18.3558 
  29   2.0000      -0.604790       -16.4572 
  30   2.0000      -0.598435       -16.2842 
  31   2.0000      -0.576361       -15.6836 
  32   2.0000      -0.563599       -15.3363 
  33   2.0000      -0.555439       -15.1143 
  34   2.0000      -0.542375       -14.7588 
  35   2.0000      -0.506923       -13.7941 
  36   2.0000      -0.484073       -13.1723 
  37   2.0000      -0.468744       -12.7552 
  38   2.0000      -0.451905       -12.2970 
  39   2.0000      -0.431571       -11.7436 
  40   2.0000      -0.423835       -11.5331 
  41   2.0000      -0.422935       -11.5086 
  42   2.0000      -0.418160       -11.3787 
  43   2.0000      -0.409534       -11.1440 
  44   2.0000      -0.397282       -10.8106 
  45   2.0000      -0.391686       -10.6583 
  46   2.0000      -0.389990       -10.6122 
  47   2.0000      -0.382506       -10.4085 
  48   2.0000      -0.380046       -10.3416 
  49   2.0000      -0.367470        -9.9994 
  50   2.0000      -0.362417        -9.8619 
  51   2.0000      -0.357401        -9.7254 
  52   2.0000      -0.340392        -9.2625 
  53   2.0000      -0.337955        -9.1962 
  54   2.0000      -0.327421        -8.9096 
  55   2.0000      -0.326185        -8.8760 
  56   2.0000      -0.320167        -8.7122 
  57   2.0000      -0.314744        -8.5646 
  58   2.0000      -0.306070        -8.3286 
  59   2.0000      -0.304576        -8.2879 
  60   2.0000      -0.291553        -7.9336 
  61   2.0000      -0.248185        -6.7534 
  62   2.0000      -0.245791        -6.6883 
  63   2.0000      -0.242342        -6.5945 
  64   2.0000      -0.240651        -6.5485 
  65   2.0000      -0.234805        -6.3894 
  66   2.0000      -0.217789        -5.9263 
  67   0.0000      -0.107111        -2.9146 
  68   0.0000      -0.059439        -1.6174 
  69   0.0000      -0.056036        -1.5248 
  70   0.0000      -0.052441        -1.4270 
  71   0.0000      -0.047448        -1.2911 
  72   0.0000      -0.016923        -0.4605 
  73   0.0000      -0.004275        -0.1163 
  74   0.0000       0.000461         0.0125 
  75   0.0000       0.004797         0.1305 
  76   0.0000       0.011996         0.3264 
  77   0.0000       0.018459         0.5023 
  78   0.0000       0.019809         0.5390 
  79   0.0000       0.027570         0.7502 
  80   0.0000       0.029841         0.8120 
  81   0.0000       0.033059         0.8996 
  82   0.0000       0.038857         1.0573 
  83   0.0000       0.040750         1.1089 
  84   0.0000       0.050040         1.3616 
  85   0.0000       0.052402         1.4259 
  86   0.0000       0.056979         1.5505 
  87   0.0000       0.061949         1.6857 
  88   0.0000       0.066894         1.8203 
  89   0.0000       0.069173         1.8823 
  90   0.0000       0.074011         2.0139 
  91   0.0000       0.077278         2.1028 
  92   0.0000       0.079885         2.1738 
  93   0.0000       0.082186         2.2364 
  94   0.0000       0.087215         2.3732 
  95   0.0000       0.091774         2.4973 
  96   0.0000       0.097189         2.6446 
  97   0.0000       0.101650         2.7660 
  98   0.0000       0.103994         2.8298 
  99   0.0000       0.110642         3.0107 
 100   0.0000       0.111196         3.0258 
 101   0.0000       0.116031         3.1574 
 102   0.0000       0.116323         3.1653 
 103   0.0000       0.121369         3.3026 
 104   0.0000       0.125424         3.4130 
 105   0.0000       0.130141         3.5413 
 106   0.0000       0.134735         3.6663 
 107   0.0000       0.136665         3.7188 
 108   0.0000       0.138806         3.7771 
 109   0.0000       0.145062         3.9473 
 110   0.0000       0.145550         3.9606 
 111   0.0000       0.151911         4.1337 
 112   0.0000       0.156972         4.2714 
 113   0.0000       0.157936         4.2976 
 114   0.0000       0.162778         4.4294 
 115   0.0000       0.167177         4.5491 
 116   0.0000       0.170821         4.6483 
 117   0.0000       0.174359         4.7446 
 118   0.0000       0.175885         4.7861 
 119   0.0000       0.180406         4.9091 
 120   0.0000       0.182620         4.9694 
 121   0.0000       0.184205         5.0125 
 122   0.0000       0.186762         5.0820 
 123   0.0000       0.187215         5.0944 
 124   0.0000       0.189577         5.1586 
 125   0.0000       0.192965         5.2509 
 126   0.0000       0.197318         5.3693 
 127   0.0000       0.199940         5.4407 
 128   0.0000       0.201154         5.4737 
 129   0.0000       0.207211         5.6385 
 130   0.0000       0.208578         5.6757 
 131   0.0000       0.212220         5.7748 
 132   0.0000       0.213843         5.8190 
 133   0.0000       0.217217         5.9108 
 134   0.0000       0.220453         5.9988 
 135   0.0000       0.224641         6.1128 
 136   0.0000       0.226021         6.1503 
 137   0.0000       0.228083         6.2064 
 138   0.0000       0.230232         6.2649 
 139   0.0000       0.235400         6.4056 
 140   0.0000       0.237067         6.4509 
 141   0.0000       0.240335         6.5398 
 142   0.0000       0.243916         6.6373 
 143   0.0000       0.246118         6.6972 
 144   0.0000       0.250461         6.8154 
 145   0.0000       0.255870         6.9626 
 146   0.0000       0.259423         7.0593 
 147   0.0000       0.262274         7.1368 
 148   0.0000       0.263127         7.1601 
 149   0.0000       0.270507         7.3609 
 150   0.0000       0.271041         7.3754 
 151   0.0000       0.273928         7.4540 
 152   0.0000       0.278514         7.5787 
 153   0.0000       0.280221         7.6252 
 154   0.0000       0.283070         7.7027 
 155   0.0000       0.285968         7.7816 
 156   0.0000       0.291268         7.9258 
 157   0.0000       0.292419         7.9571 
 158   0.0000       0.295302         8.0356 
 159   0.0000       0.300862         8.1869 
 160   0.0000       0.304459         8.2847 
 161   0.0000       0.306436         8.3385 
 162   0.0000       0.309661         8.4263 
 163   0.0000       0.316511         8.6127 
 164   0.0000       0.321297         8.7429 
 165   0.0000       0.325365         8.8536 
 166   0.0000       0.326921         8.8960 
 167   0.0000       0.331347         9.0164 
 168   0.0000       0.334945         9.1143 
 169   0.0000       0.348549         9.4845 
 170   0.0000       0.356224         9.6933 
 171   0.0000       0.366673         9.9777 
 172   0.0000       0.369699        10.0600 
 173   0.0000       0.379213        10.3189 
 174   0.0000       0.385618        10.4932 
 175   0.0000       0.387054        10.5323 
 176   0.0000       0.393026        10.6948 
 177   0.0000       0.411443        11.1959 
 178   0.0000       0.421160        11.4604 
 179   0.0000       0.431661        11.7461 
 180   0.0000       0.442558        12.0426 
 181   0.0000       0.453863        12.3502 
 182   0.0000       0.457723        12.4553 
 183   0.0000       0.462928        12.5969 
 184   0.0000       0.472285        12.8515 
 185   0.0000       0.483987        13.1700 
 186   0.0000       0.486773        13.2458 
 187   0.0000       0.491974        13.3873 
 188   0.0000       0.495402        13.4806 
 189   0.0000       0.501901        13.6574 
 190   0.0000       0.507979        13.8228 
 191   0.0000       0.508987        13.8502 
 192   0.0000       0.517641        14.0857 
 193   0.0000       0.522253        14.2112 
 194   0.0000       0.530817        14.4443 
 195   0.0000       0.537640        14.6299 
 196   0.0000       0.546239        14.8639 
 197   0.0000       0.563493        15.3334 
 198   0.0000       0.564775        15.3683 
 199   0.0000       0.570676        15.5289 
 200   0.0000       0.577379        15.7113 
 201   0.0000       0.577750        15.7214 
 202   0.0000       0.585293        15.9266 
 203   0.0000       0.593580        16.1521 
 204   0.0000       0.595277        16.1983 
 205   0.0000       0.601287        16.3618 
 206   0.0000       0.605104        16.4657 
 207   0.0000       0.614331        16.7168 
 208   0.0000       0.623965        16.9789 
 209   0.0000       0.629368        17.1260 
 210   0.0000       0.633589        17.2408 
 211   0.0000       0.641622        17.4594 
 212   0.0000       0.644710        17.5435 
 213   0.0000       0.649960        17.6863 
 214   0.0000       0.652422        17.7533 
 215   0.0000       0.658599        17.9214 
 216   0.0000       0.664121        18.0716 
 217   0.0000       0.665015        18.0960 
 218   0.0000       0.672110        18.2890 
 219   0.0000       0.674675        18.3589 
 220   0.0000       0.678069        18.4512 
 221   0.0000       0.682975        18.5847 
 222   0.0000       0.688690        18.7402 
 223   0.0000       0.696479        18.9522 
 224   0.0000       0.701790        19.0967 
 225   0.0000       0.709221        19.2989 
 226   0.0000       0.716922        19.5084 
 227   0.0000       0.721428        19.6311 
 228   0.0000       0.726672        19.7737 
 229   0.0000       0.734054        19.9746 
 230   0.0000       0.740573        20.1520 
 231   0.0000       0.749265        20.3885 
 232   0.0000       0.758935        20.6517 
 233   0.0000       0.767090        20.8736 
 234   0.0000       0.785727        21.3807 
 235   0.0000       0.787969        21.4417 
 236   0.0000       0.793243        21.5852 
 237   0.0000       0.806870        21.9561 
 238   0.0000       0.809233        22.0203 
 239   0.0000       0.813894        22.1472 
 240   0.0000       0.821516        22.3546 
 241   0.0000       0.833336        22.6762 
 242   0.0000       0.842328        22.9209 
 243   0.0000       0.843654        22.9570 
 244   0.0000       0.865494        23.5513 
 245   0.0000       0.874507        23.7965 
 246   0.0000       0.884312        24.0633 
 247   0.0000       0.885037        24.0831 
 248   0.0000       0.896645        24.3989 
 249   0.0000       0.904037        24.6001 
 250   0.0000       0.914208        24.8769 
 251   0.0000       0.925862        25.1940 
 252   0.0000       0.937900        25.5216 
 253   0.0000       0.939232        25.5578 
 254   0.0000       0.950643        25.8683 
 255   0.0000       0.959962        26.1219 
 256   0.0000       0.973662        26.4947 
 257   0.0000       0.980348        26.6766 
 258   0.0000       0.993695        27.0398 
 259   0.0000       0.997937        27.1552 
 260   0.0000       1.011172        27.5154 
 261   0.0000       1.015634        27.6368 
 262   0.0000       1.020686        27.7743 
 263   0.0000       1.031114        28.0580 
 264   0.0000       1.034889        28.1608 
 265   0.0000       1.046896        28.4875 
 266   0.0000       1.063604        28.9421 
 267   0.0000       1.069017        29.0894 
 268   0.0000       1.080132        29.3919 
 269   0.0000       1.089609        29.6498 
 270   0.0000       1.096992        29.8507 
 271   0.0000       1.107263        30.1302 
 272   0.0000       1.111619        30.2487 
 273   0.0000       1.133219        30.8364 
 274   0.0000       1.156643        31.4739 
 275   0.0000       1.165301        31.7094 
 276   0.0000       1.174469        31.9589 
 277   0.0000       1.187646        32.3175 
 278   0.0000       1.201962        32.7071 
 279   0.0000       1.226957        33.3872 
 280   0.0000       1.228195        33.4209 
 281   0.0000       1.237356        33.6702 
 282   0.0000       1.242104        33.7994 
 283   0.0000       1.247910        33.9574 
 284   0.0000       1.282083        34.8873 
 285   0.0000       1.284688        34.9581 
 286   0.0000       1.312752        35.7218 
 287   0.0000       1.335006        36.3274 
 288   0.0000       1.355600        36.8878 
 289   0.0000       1.388672        37.7877 
 290   0.0000       1.404686        38.2235 
 291   0.0000       1.420851        38.6633 
 292   0.0000       1.422805        38.7165 
 293   0.0000       1.428394        38.8686 
 294   0.0000       1.433808        39.0159 
 295   0.0000       1.434332        39.0301 
 296   0.0000       1.446104        39.3505 
 297   0.0000       1.452728        39.5307 
 298   0.0000       1.457079        39.6491 
 299   0.0000       1.466397        39.9027 
 300   0.0000       1.467149        39.9231 
 301   0.0000       1.482067        40.3291 
 302   0.0000       1.496324        40.7170 
 303   0.0000       1.502552        40.8865 
 304   0.0000       1.506289        40.9882 
 305   0.0000       1.511135        41.1201 
 306   0.0000       1.519047        41.3354 
 307   0.0000       1.529182        41.6112 
 308   0.0000       1.534403        41.7532 
 309   0.0000       1.551762        42.2256 
 310   0.0000       1.561135        42.4806 
 311   0.0000       1.567092        42.6427 
 312   0.0000       1.579855        42.9900 
 313   0.0000       1.589753        43.2594 
 314   0.0000       1.593098        43.3504 
 315   0.0000       1.606267        43.7088 
 316   0.0000       1.615799        43.9681 
 317   0.0000       1.625433        44.2303 
 318   0.0000       1.635075        44.4927 
 319   0.0000       1.649881        44.8955 
 320   0.0000       1.666124        45.3375 
 321   0.0000       1.670559        45.4582 
 322   0.0000       1.675315        45.5876 
 323   0.0000       1.689376        45.9703 
 324   0.0000       1.698895        46.2293 
 325   0.0000       1.712625        46.6029 
 326   0.0000       1.714989        46.6672 
 327   0.0000       1.726179        46.9717 
 328   0.0000       1.735065        47.2135 
 329   0.0000       1.741915        47.3999 
 330   0.0000       1.743274        47.4369 
 331   0.0000       1.750770        47.6409 
 332   0.0000       1.774104        48.2758 
 333   0.0000       1.806775        49.1649 
 334   0.0000       1.814027        49.3622 
 335   0.0000       1.820071        49.5266 
 336   0.0000       1.835156        49.9371 
 337   0.0000       1.841103        50.0990 
 338   0.0000       1.849687        50.3325 
 339   0.0000       1.853300        50.4309 
 340   0.0000       1.864468        50.7347 
 341   0.0000       1.875644        51.0389 
 342   0.0000       1.880857        51.1807 
 343   0.0000       1.892209        51.4896 
 344   0.0000       1.900682        51.7202 
 345   0.0000       1.907810        51.9141 
 346   0.0000       1.909966        51.9728 
 347   0.0000       1.931436        52.5571 
 348   0.0000       1.939716        52.7823 
 349   0.0000       1.944139        52.9027 
 350   0.0000       1.955423        53.2098 
 351   0.0000       1.967122        53.5281 
 352   0.0000       1.972693        53.6797 
 353   0.0000       1.985790        54.0361 
 354   0.0000       2.010909        54.7196 
 355   0.0000       2.021658        55.0121 
 356   0.0000       2.031892        55.2906 
 357   0.0000       2.040899        55.5357 
 358   0.0000       2.049095        55.7587 
 359   0.0000       2.070713        56.3470 
 360   0.0000       2.090128        56.8753 
 361   0.0000       2.095485        57.0210 
 362   0.0000       2.119301        57.6691 
 363   0.0000       2.123565        57.7851 
 364   0.0000       2.148141        58.4539 
 365   0.0000       2.166374        58.9500 
 366   0.0000       2.227148        60.6038 
 367   0.0000       2.238770        60.9200 
 368   0.0000       2.248690        61.1900 
 369   0.0000       2.264069        61.6085 
 370   0.0000       2.282152        62.1005 
 371   0.0000       2.305344        62.7316 
 372   0.0000       2.325092        63.2690 
 373   0.0000       2.333992        63.5112 
 374   0.0000       2.339890        63.6716 
 375   0.0000       2.349520        63.9337 
 376   0.0000       2.358454        64.1768 
 377   0.0000       2.371735        64.5382 
 378   0.0000       2.381943        64.8160 
 379   0.0000       2.422652        65.9237 
 380   0.0000       2.447492        66.5996 
 381   0.0000       2.469783        67.2062 
 382   0.0000       2.487562        67.6900 
 383   0.0000       2.531916        68.8969 
 384   0.0000       2.539253        69.0966 
 385   0.0000       2.543677        69.2170 
 386   0.0000       2.575059        70.0709 
 387   0.0000       2.586006        70.3688 
 388   0.0000       2.590908        70.5022 
 389   0.0000       2.596793        70.6623 
 390   0.0000       2.602015        70.8044 
 391   0.0000       2.629333        71.5478 
 392   0.0000       2.636059        71.7308 
 393   0.0000       2.637734        71.7764 
 394   0.0000       2.645627        71.9912 
 395   0.0000       2.663360        72.4737 
 396   0.0000       2.671069        72.6835 
 397   0.0000       2.673716        72.7555 
 398   0.0000       2.684682        73.0539 
 399   0.0000       2.693801        73.3020 
 400   0.0000       2.696599        73.3782 
 401   0.0000       2.702586        73.5411 
 402   0.0000       2.712491        73.8106 
 403   0.0000       2.723001        74.0966 
 404   0.0000       2.725975        74.1775 
 405   0.0000       2.733802        74.3905 
 406   0.0000       2.745251        74.7021 
 407   0.0000       2.751183        74.8635 
 408   0.0000       2.755408        74.9785 
 409   0.0000       2.756813        75.0167 
 410   0.0000       2.766109        75.2696 
 411   0.0000       2.783038        75.7303 
 412   0.0000       2.786032        75.8118 
 413   0.0000       2.794019        76.0291 
 414   0.0000       2.807325        76.3912 
 415   0.0000       2.817614        76.6712 
 416   0.0000       2.822504        76.8042 
 417   0.0000       2.836593        77.1876 
 418   0.0000       2.842679        77.3532 
 419   0.0000       2.863978        77.9328 
 420   0.0000       2.886257        78.5391 
 421   0.0000       2.896109        78.8071 
 422   0.0000       2.903364        79.0046 
 423   0.0000       2.920362        79.4671 
 424   0.0000       2.929104        79.7050 
 425   0.0000       2.942923        80.0810 
 426   0.0000       2.969538        80.8052 
 427   0.0000       3.009465        81.8917 
 428   0.0000       3.017222        82.1028 
 429   0.0000       3.038711        82.6875 
 430   0.0000       3.056810        83.1800 
 431   0.0000       3.085188        83.9522 
 432   0.0000       3.112907        84.7065 
 433   0.0000       3.121847        84.9498 
 434   0.0000       3.141331        85.4800 
 435   0.0000       3.181884        86.5835 
 436   0.0000       3.184738        86.6611 
 437   0.0000       3.245446        88.3131 
 438   0.0000       3.255010        88.5733 
 439   0.0000       3.268197        88.9321 
 440   0.0000       3.287758        89.4644 
 441   0.0000       3.294058        89.6359 
 442   0.0000       3.311234        90.1033 
 443   0.0000       3.346997        91.0764 
 444   0.0000       3.408759        92.7571 
 445   0.0000       3.420263        93.0701 
 446   0.0000       3.434447        93.4560 
 447   0.0000       3.441916        93.6593 
 448   0.0000       3.452854        93.9569 
 449   0.0000       3.481424        94.7343 
 450   0.0000       3.511230        95.5454 
 451   0.0000       3.552648        96.6725 
 452   0.0000       3.563854        96.9774 
 453   0.0000       3.597013        97.8797 
 454   0.0000       3.606687        98.1429 
 455   0.0000       3.723615       101.3247 
 456   0.0000       3.727649       101.4345 
 457   0.0000       3.742732       101.8449 
 458   0.0000       3.792126       103.1890 
 459   0.0000       3.897534       106.0573 
 460   0.0000       3.919261       106.6485 
 461   0.0000       3.940029       107.2137 
 462   0.0000       3.951534       107.5267 
 463   0.0000       3.983502       108.3966 
 464   0.0000       4.028345       109.6168 
 465   0.0000       4.056827       110.3919 
 466   0.0000       4.060192       110.4834 
 467   0.0000       4.080176       111.0272 
 468   0.0000       4.125609       112.2635 
 469   0.0000       4.148001       112.8729 
 470   0.0000       4.284845       116.5966 
 471   0.0000       4.389342       119.4401 
 472   0.0000       4.732646       128.7819 
 473   0.0000       4.746872       129.1689 
 474   0.0000       4.859949       132.2459 
 475   0.0000       4.941448       134.4636 
 476   0.0000       4.973096       135.3248 
 477   0.0000       5.080483       138.2470 
 478   0.0000       5.118468       139.2806 
 479   0.0000       5.225814       142.2016 
 480   0.0000       5.452847       148.3795 
 481   0.0000       5.621346       152.9646 
 482   0.0000       5.769992       157.0095 
 483   0.0000      23.329847       634.8374 
 484   0.0000      23.412682       637.0915 
 485   0.0000      23.540632       640.5732 
 486   0.0000      23.597225       642.1131 
[...]
 30 H s       :     0.800406  s :     0.800406
      pz      :     0.010493  p :     0.024336
      px      :     0.004704
      py      :     0.009140
 31 H s       :     0.801066  s :     0.801066
      pz      :     0.005821  p :     0.024513
      px      :     0.009847
      py      :     0.008846
 32 H s       :     0.787658  s :     0.787658
      pz      :     0.007382  p :     0.024871
      px      :     0.012474
      py      :     0.005016


                     *******************************
                     * LOEWDIN POPULATION ANALYSIS *
                     *******************************

----------------------
LOEWDIN ATOMIC CHARGES
----------------------
   0 H :    0.112426
   1 C :   -0.127698
   2 C :   -0.086699
   3 C :   -0.016693
   4 O :   -0.047142
   5 O :   -0.190213
   6 C :   -0.098712
   7 C :   -0.033218
   8 C :   -0.107259
   9 C :   -0.028071
  10 C :   -0.055495
  11 C :   -0.036653
  12 C :    0.007802
  13 O :   -0.211645
  14 C :   -0.114613
  15 C :   -0.031010
  16 C :   -0.064660
  17 C :   -0.051145
  18 C :   -0.066089
  19 C :   -0.045337
  20 H :    0.079087
  21 H :    0.084972
  22 H :    0.085647
  23 H :    0.154293
  24 H :    0.116601
  25 H :    0.102127
  26 H :    0.091035
  27 H :    0.099239
  28 H :    0.101919
  29 H :    0.089953
  30 H :    0.089912
  31 H :    0.091041
  32 H :    0.106297

-------------------------------
LOEWDIN REDUCED ORBITAL CHARGES
-------------------------------
  0 H s       :     0.816067  s :     0.816067
      pz      :     0.035249  p :     0.071506
      px      :     0.023580
      py      :     0.012677
  1 C s       :     2.785898  s :     2.785898
      pz      :     1.065285  p :     3.194028
      px      :     1.073987
      py      :     1.054756
      dz2     :     0.017782  d :     0.147772
      dxz     :     0.032912
      dyz     :     0.033859
      dx2y2   :     0.031263
      dxy     :     0.031957
  2 C s       :     2.799810  s :     2.799810
      pz      :     1.088326  p :     3.198079
      px      :     1.027702
      py      :     1.082052
      dz2     :     0.008028  d :     0.088810
      dxz     :     0.026108
      dyz     :     0.017962
      dx2y2   :     0.020233
      dxy     :     0.016479
  3 C s       :     2.780622  s :     2.780622
      pz      :     1.066126  p :     2.827848
      px      :     0.839498
      py      :     0.922224
      dz2     :     0.101654  d :     0.408224
      dxz     :     0.094191
      dyz     :     0.138161
      dx2y2   :     0.036606
      dxy     :     0.037611
  4 O s       :     3.405977  s :     3.405977
      pz      :     1.361368  p :     4.622556
      px      :     1.672429
      py      :     1.588760
      dz2     :     0.006614  d :     0.018608
      dxz     :     0.001467
      dyz     :     0.003203
      dx2y2   :     0.002830
      dxy     :     0.004494
  5 O s       :     3.499742  s :     3.499742
      pz      :     1.491458  p :     4.667334
      px      :     1.513603
      py      :     1.662273
      dz2     :     0.013809  d :     0.023138
      dxz     :     0.004662
      dyz     :     0.004554
      dx2y2   :     0.000055
      dxy     :     0.000058
  6 C s       :     2.784978  s :     2.784978
      pz      :     1.056540  p :     3.153432
      px      :     1.021442
      py      :     1.075450
      dz2     :     0.029127  d :     0.160302
      dxz     :     0.024363
      dyz     :     0.040787
      dx2y2   :     0.033311
      dxy     :     0.032714
  7 C s       :     2.779095  s :     2.779095
      pz      :     1.046895  p :     3.125774
      px      :     0.999684
      py      :     1.079194
      dz2     :     0.024194  d :     0.128349
      dxz     :     0.018577
      dyz     :     0.034421
      dx2y2   :     0.022928
      dxy     :     0.028229
  8 C s       :     2.780986  s :     2.780986
      pz      :     1.030752  p :     3.169920
      px      :     1.016018
      py      :     1.123150
      dz2     :     0.024042  d :     0.156353
      dxz     :     0.024361
      dyz     :     0.038443
      dx2y2   :     0.035221
      dxy     :     0.034285
  9 C s       :     2.791388  s :     2.791388
      pz      :     1.031596  p :     3.108412
      px      :     1.011624
      py      :     1.065192
      dz2     :     0.024545  d :     0.128271
      dxz     :     0.020958
      dyz     :     0.032344
      dx2y2   :     0.026918
      dxy     :     0.023507
 10 C s       :     2.799109  s :     2.799109
      pz      :     1.039019  p :     3.128202
      px      :     1.009080
      py      :     1.080102
      dz2     :     0.023541  d :     0.128185
      dxz     :     0.018409
      dyz     :     0.034863
      dx2y2   :     0.023880
      dxy     :     0.027492
 11 C s       :     2.794931  s :     2.794931
      pz      :     1.017797  p :     3.113400
      px      :     0.991296
      py      :     1.104307
      dz2     :     0.018690  d :     0.128322
      dxz     :     0.015224
      dyz     :     0.032887
      dx2y2   :     0.031246
      dxy     :     0.030275
 12 C s       :     2.788519  s :     2.788519
      pz      :     0.983127  p :     2.898752
      px      :     0.897375
      py      :     1.018250
      dz2     :     0.042774  d :     0.304927
      dxz     :     0.038416
      dyz     :     0.087862
      dx2y2   :     0.071828
      dxy     :     0.064047
 13 O s       :     3.517156  s :     3.517156
      pz      :     1.688551  p :     4.672552
      px      :     1.487171
      py      :     1.496830
      dz2     :     0.003197  d :     0.021937
      dxz     :     0.001101
      dyz     :     0.003610
      dx2y2   :     0.006024
      dxy     :     0.008005
 14 C s       :     2.783673  s :     2.783673
      pz      :     1.028919  p :     3.175205
      px      :     1.112484
      py      :     1.033802
      dz2     :     0.022050  d :     0.155734
      dxz     :     0.033720
      dyz     :     0.028278
      dx2y2   :     0.036933
      dxy     :     0.034753
 15 C s       :     2.793762  s :     2.793762
      pz      :     1.023428  p :     3.109398
      px      :     1.065396
      py      :     1.020575
      dz2     :     0.024599  d :     0.127850
      dxz     :     0.031364
      dyz     :     0.019621
      dx2y2   :     0.023128
      dxy     :     0.029137
 16 C s       :     2.802614  s :     2.802614
      pz      :     1.030466  p :     3.134427
      px      :     1.063889
      py      :     1.040072
      dz2     :     0.020686  d :     0.127620
      dxz     :     0.028266
      dyz     :     0.023254
      dx2y2   :     0.029732
      dxy     :     0.025682
 17 C s       :     2.806912  s :     2.806912
      pz      :     1.008659  p :     3.116534
      px      :     1.097351
      py      :     1.010523
      dz2     :     0.017265  d :     0.127699
      dxz     :     0.029463
      dyz     :     0.018167
      dx2y2   :     0.031851
      dxy     :     0.030953
 18 C s       :     2.802052  s :     2.802052
      pz      :     1.041174  p :     3.136586
      px      :     1.077249
      py      :     1.018163
      dz2     :     0.024165  d :     0.127451
      dxz     :     0.031277
      dyz     :     0.019772
      dx2y2   :     0.023040
      dxy     :     0.029196
 19 C s       :     2.792313  s :     2.792313
      pz      :     1.043079  p :     3.124763
      px      :     1.062866
      py      :     1.018818
      dz2     :     0.021724  d :     0.128261
      dxz     :     0.028815
      dyz     :     0.022533
      dx2y2   :     0.029870
      dxy     :     0.025319
 20 H s       :     0.850921  s :     0.850921
      pz      :     0.020039  p :     0.069992
      px      :     0.013432
      py      :     0.036521
 21 H s       :     0.845418  s :     0.845418
      pz      :     0.025276  p :     0.069610
      px      :     0.019343
      py      :     0.024991
 22 H s       :     0.844011  s :     0.844011
      pz      :     0.032332  p :     0.070342
      px      :     0.023750
      py      :     0.014260
 23 H s       :     0.664947  s :     0.664947
      pz      :     0.105498  p :     0.180760
      px      :     0.040376
      py      :     0.034886
 24 H s       :     0.810192  s :     0.810192
      pz      :     0.018813  p :     0.073207
      px      :     0.022284
      py      :     0.032109
 25 H s       :     0.826023  s :     0.826023
      pz      :     0.017643  p :     0.071850
      px      :     0.013907
      py      :     0.040300
 26 H s       :     0.838455  s :     0.838455
      pz      :     0.018048  p :     0.070509
      px      :     0.021835
      py      :     0.030626
 27 H s       :     0.830031  s :     0.830031
      pz      :     0.032976  p :     0.070730
      px      :     0.025090
      py      :     0.012663
 28 H s       :     0.826310  s :     0.826310
      pz      :     0.015559  p :     0.071771
      px      :     0.029039
      py      :     0.027172
 29 H s       :     0.839545  s :     0.839545
      pz      :     0.019535  p :     0.070503
      px      :     0.038066
      py      :     0.012902
 30 H s       :     0.839617  s :     0.839617
      pz      :     0.030966  p :     0.070471
      px      :     0.013056
      py      :     0.026450
 31 H s       :     0.838401  s :     0.838401
      pz      :     0.015601  p :     0.070558
      px      :     0.029786
      py      :     0.025171
 32 H s       :     0.821129  s :     0.821129
      pz      :     0.020146  p :     0.072573
      px      :     0.039491
      py      :     0.012935


                      *****************************
                      * MAYER POPULATION ANALYSIS *
                      *****************************

  NA   - Mulliken gross atomic population
  ZA   - Total nuclear charge
  QA   - Mulliken gross atomic charge
  VA   - Mayer's total valence
  BVA  - Mayer's bonded valence
  FA   - Mayer's free valence

  ATOM       NA         ZA         QA         VA         BVA        FA
  0 H      0.7772     1.0000     0.2228     0.9358     0.9358     0.0000
  1 C      6.2027     6.0000    -0.2027     3.1492     3.1492    -0.0000
  2 C      6.5703     6.0000    -0.5703     3.4416     3.4416    -0.0000
  3 C      6.0847     6.0000    -0.0847     4.1669     4.1669     0.0000
  4 O      8.1651     8.0000    -0.1651     2.0291     2.0291    -0.0000
  5 O      8.3114     8.0000    -0.3114     2.0575     2.0575    -0.0000
  6 C      5.0964     6.0000     0.9036     2.4313     2.4313    -0.0000
  7 C      8.1372     6.0000    -2.1372     8.9253     8.9253     0.0000
  8 C      4.3691     6.0000     1.6309     0.8388     0.8388    -0.0000
  9 C      5.7558     6.0000     0.2442     2.6900     2.6900     0.0000
 10 C      6.3910     6.0000    -0.3910     3.2173     3.2173    -0.0000
 11 C      6.1142     6.0000    -0.1142     3.2889     3.2889     0.0000
 12 C      7.2320     6.0000    -1.2320     4.1141     4.1141    -0.0000
 13 O      8.2492     8.0000    -0.2492     1.9222     1.9222    -0.0000
 14 C      4.2700     6.0000     1.7300     1.4722     1.4722    -0.0000
 15 C      5.9155     6.0000     0.0845     2.9374     2.9374     0.0000
 16 C      6.2028     6.0000    -0.2028     3.6253     3.6253     0.0000
 17 C      6.1882     6.0000    -0.1882     3.9370     3.9370    -0.0000
 18 C      6.3917     6.0000    -0.3917     3.7526     3.7526     0.0000
 19 C      7.0542     6.0000    -1.0542     5.1002     5.1002     0.0000
 20 H      0.8115     1.0000     0.1885     0.9409     0.9409    -0.0000
 21 H      0.8042     1.0000     0.1958     0.9421     0.9421     0.0000
 22 H      0.8015     1.0000     0.1985     0.9394     0.9394    -0.0000
 23 H      0.6884     1.0000     0.3116     0.9417     0.9417     0.0000
 24 H      0.8116     1.0000     0.1884     0.9655     0.9655     0.0000
 25 H      0.8282     1.0000     0.1718     0.9583     0.9583     0.0000
 26 H      0.8253     1.0000     0.1747     0.9449     0.9449     0.0000
 27 H      0.8288     1.0000     0.1712     0.9550     0.9550     0.0000
 28 H      0.8330     1.0000     0.1670     0.9644     0.9644     0.0000
 29 H      0.8260     1.0000     0.1740     0.9482     0.9482     0.0000
 30 H      0.8247     1.0000     0.1753     0.9485     0.9485     0.0000
 31 H      0.8256     1.0000     0.1744     0.9507     0.9507    -0.0000
 32 H      0.8125     1.0000     0.1875     0.9535     0.9535     0.0000

  Mayer bond orders larger than 0.100000
B(  0-H ,  1-C ) :   1.0899 B(  0-H ,  6-C ) :  -0.3427 B(  0-H ,  7-C ) :   0.1162 
B(  1-C ,  2-C ) :   0.9462 B(  1-C ,  3-C ) :   1.1212 B(  1-C ,  4-O ) :   0.2460 
B(  1-C ,  5-O ) :  -0.2303 B(  1-C ,  6-C ) :  -0.1030 B(  1-C ,  7-C ) :   0.3313 
B(  1-C ,  8-C ) :   0.1151 B(  1-C , 11-C ) :  -0.4444 B(  2-C ,  3-C ) :  -0.1608 
B(  2-C ,  4-O ) :  -0.1319 B(  2-C ,  6-C ) :  -0.3632 B(  2-C ,  7-C ) :   0.5445 
B(  2-C , 11-C ) :  -0.1801 B(  2-C , 20-H ) :   0.9646 B(  2-C , 21-H ) :   0.9854 
B(  2-C , 22-H ) :   0.9920 B(  3-C ,  4-O ) :   1.2124 B(  3-C ,  5-O ) :   2.0232 
B(  3-C ,  6-C ) :  -0.7605 B(  3-C ,  7-C ) :   1.0727 B(  3-C ,  8-C ) :  -0.1432 
B(  3-C , 11-C ) :  -0.2334 B(  4-O ,  6-C ) :  -0.2112 B(  4-O ,  7-C ) :   0.1334 
B(  4-O , 23-H ) :   0.8506 B(  5-O ,  6-C ) :   0.6042 B(  5-O ,  7-C ) :  -0.4591 
B(  5-O ,  8-C ) :  -0.1035 B(  5-O , 11-C ) :   0.1333 B(  6-C ,  7-C ) :   1.9478 
B(  6-C ,  8-C ) :   0.1731 B(  6-C ,  9-C ) :   0.2606 B(  6-C , 11-C ) :   1.2820 
B(  6-C , 14-C ) :   0.4496 B(  6-C , 15-C ) :  -1.1845 B(  6-C , 16-C ) :   0.2238 
B(  6-C , 17-C ) :  -0.1633 B(  6-C , 18-C ) :   0.4858 B(  6-C , 24-H ) :   0.1333 
B(  7-C ,  8-C ) :   0.2946 B(  7-C , 10-C ) :  -0.2759 B(  7-C , 11-C ) :   1.1494 
B(  7-C , 12-C ) :   2.5297 B(  7-C , 14-C ) :  -0.6020 B(  7-C , 15-C ) :  -0.5430 
B(  7-C , 16-C ) :  -0.4385 B(  7-C , 17-C ) :   0.1970 B(  7-C , 19-C ) :   2.1605 
B(  7-C , 24-H ) :   0.6044 B(  7-C , 32-H ) :   0.1164 B(  8-C ,  9-C ) :   1.8102 
B(  8-C , 11-C ) :  -0.1336 B(  8-C , 12-C ) :  -0.9373 B(  8-C , 14-C ) :   0.7656 
B(  8-C , 15-C ) :  -0.5996 B(  8-C , 16-C ) :   0.2246 B(  8-C , 17-C ) :  -0.1258 
B(  8-C , 18-C ) :   0.3160 B(  8-C , 19-C ) :  -0.7149 B(  9-C , 10-C ) :   1.1578 
B(  9-C , 11-C ) :  -0.2889 B(  9-C , 12-C ) :  -0.6958 B(  9-C , 14-C ) :  -0.9395 
B(  9-C , 15-C ) :   2.1559 B(  9-C , 16-C ) :  -0.1214 B(  9-C , 17-C ) :   0.1696 
B(  9-C , 18-C ) :  -0.8826 B(  9-C , 19-C ) :  -0.7775 B(  9-C , 25-H ) :   0.8861 
B(  9-C , 26-H ) :  -0.1257 B( 10-C , 11-C ) :   1.0943 B( 10-C , 14-C ) :   0.2582 
B( 10-C , 15-C ) :  -0.2533 B( 10-C , 18-C ) :   0.1823 B( 10-C , 19-C ) :  -0.2305 
B( 10-C , 26-H ) :   1.0563 B( 11-C , 14-C ) :  -0.1348 B( 11-C , 19-C ) :   0.1133 
B( 11-C , 24-H ) :   0.1070 B( 11-C , 27-H ) :   0.8272 B( 12-C , 13-O ) :   1.9350 
B( 12-C , 14-C ) :  -0.5168 B( 12-C , 15-C ) :  -0.2153 B( 12-C , 16-C ) :  -0.1493 
B( 12-C , 18-C ) :   0.2207 B( 12-C , 19-C ) :   1.6170 B( 12-C , 24-H ) :   0.1318 
B( 12-C , 28-H ) :   0.1505 B( 14-C , 15-C ) :   1.5918 B( 14-C , 18-C ) :  -0.1278 
B( 14-C , 19-C ) :   0.8212 B( 14-C , 28-H ) :  -0.1173 B( 15-C , 16-C ) :   1.2941 
B( 15-C , 17-C ) :   0.2099 B( 15-C , 19-C ) :  -0.1286 B( 15-C , 28-H ) :   0.9378 
B( 15-C , 29-H ) :  -0.1209 B( 16-C , 17-C ) :   1.4352 B( 16-C , 29-H ) :   1.0141 
B( 17-C , 18-C ) :   1.3632 B( 17-C , 30-H ) :   0.9541 B( 18-C , 19-C ) :   1.3006 
B( 18-C , 31-H ) :   1.0106 B( 19-C , 31-H ) :  -0.1046 B( 19-C , 32-H ) :   0.9561 


-------
TIMINGS
-------

Total SCF time: 0 days 0 hours 2 min 20 sec 

Total time                  ....     140.233 sec
Sum of individual times     ....     139.553 sec  ( 99.5%)

Fock matrix formation       ....     116.967 sec  ( 83.4%)
  Split-RI-J                ....      37.288 sec  ( 31.9% of F)
  XC integration            ....      44.079 sec  ( 37.7% of F)
    Basis function eval.    ....      11.596 sec  ( 26.3% of XC)
    Density eval.           ....      17.752 sec  ( 40.3% of XC)
    XC-Functional eval.     ....       0.767 sec  (  1.7% of XC)
    XC-Potential eval.      ....      11.585 sec  ( 26.3% of XC)
Diagonalization             ....       0.025 sec  (  0.0%)
Density matrix formation    ....       0.050 sec  (  0.0%)
Population analysis         ....       0.032 sec  (  0.0%)
Initial guess               ....       0.026 sec  (  0.0%)
Orbital Transformation      ....       0.150 sec  (  0.1%)
Orbital Orthonormalization  ....       0.020 sec  (  0.0%)
DIIS solution               ....       0.010 sec  (  0.0%)
SOSCF solution              ....       0.424 sec  (  0.3%)
Grid generation             ....       1.298 sec  (  0.9%)

Maximum memory used throughout the entire SCF-calculation: 190.3 MB

-------------------------   --------------------
FINAL SINGLE POINT ENERGY      -843.050347819968
-------------------------   --------------------

                                *** OPTIMIZATION RUN DONE ***

                            ***************************************
                            *     ORCA property calculations      *
                            ***************************************

                                    ---------------------
                                    Active property flags
                                    ---------------------
   (+) Dipole Moment


------------------------------------------------------------------------------
                       ORCA ELECTRIC PROPERTIES CALCULATION
------------------------------------------------------------------------------

Dipole Moment Calculation                       ... on
Quadrupole Moment Calculation                   ... off
Polarizability Calculation                      ... off
GBWName                                         ... Dexketoprofen\Dexketoprofen_PBE_6-311+G\Dexketoprofen_PBE_6-311+G.orcainp.gbw
Electron density                                ... Dexketoprofen\Dexketoprofen_PBE_6-311+G\Dexketoprofen_PBE_6-311+G.orcainp.scfp
The origin for moment calculation is the CENTER OF MASS  = ( 6.257206,  2.681145 -4.613988)

-------------
DIPOLE MOMENT
-------------
                                X             Y             Z
Electronic contribution:     -2.04433       3.71648      -3.34938
Nuclear contribution   :      1.63516      -5.10283       5.65353
                        -----------------------------------------
Total Dipole Moment    :     -0.40917      -1.38636       2.30415
                        -----------------------------------------
Magnitude (a.u.)       :      2.72002
Magnitude (Debye)      :      6.91374



--------------------
Rotational spectrum 
--------------------
 
Rotational constants in cm-1:     0.017534     0.008635     0.006477 
Rotational constants in MHz :   525.647968   258.863345   194.184374 

 Dipole components along the rotational axes: 
x,y,z [a.u.] :     2.490278    -0.442577    -1.000569 
x,y,z [Debye]:     6.329785    -1.124940    -2.543244 

 

Timings for individual modules:

Sum of individual times         ...     2450.203 sec (=  40.837 min)
GTO integral calculation        ...        4.672 sec (=   0.078 min)   0.2 %
SCF iterations                  ...     2135.109 sec (=  35.585 min)  87.1 %
SCF Gradient evaluation         ...      309.453 sec (=   5.158 min)  12.6 %
Geometry relaxation             ...        0.969 sec (=   0.016 min)   0.0 %
                             ****ORCA TERMINATED NORMALLY****
TOTAL RUN TIME: 0 days 0 hours 40 minutes 51 seconds 498 msec
