
                                 *****************
                                 * O   R   C   A *
                                 *****************

                                            #,                                       
                                            ###                                      
                                            ####                                     
                                            #####                                    
                                            ######                                   
                                           ########,                                 
                                     ,,################,,,,,                         
                               ,,#################################,,                 
                          ,,##########################################,,             
                       ,#########################################, ''#####,          
                    ,#############################################,,   '####,        
                  ,##################################################,,,,####,       
                ,###########''''           ''''###############################       
              ,#####''   ,,,,##########,,,,          '''####'''          '####       
            ,##' ,,,,###########################,,,                        '##       
           ' ,,###''''                  '''############,,,                           
         ,,##''                                '''############,,,,        ,,,,,,###''
      ,#''                                            '''#######################'''  
     '                                                          ''''####''''         
             ,#######,   #######,   ,#######,      ##                                
            ,#'     '#,  ##    ##  ,#'     '#,    #''#        ######   ,####,        
            ##       ##  ##   ,#'  ##            #'  '#       #        #'  '#        
            ##       ##  #######   ##           ,######,      #####,   #    #        
            '#,     ,#'  ##    ##  '#,     ,#' ,#      #,         ##   #,  ,#        
             '#######'   ##     ##  '#######'  #'      '#     #####' # '####'        



                  #######################################################
                  #                        -***-                        #
                  #          Department of theory and spectroscopy      #
                  #    Directorship and core code : Frank Neese         #
                  #        Max Planck Institute fuer Kohlenforschung    #
                  #                Kaiser Wilhelm Platz 1               #
                  #                 D-45470 Muelheim/Ruhr               #
                  #                      Germany                        #
                  #                                                     #
                  #                  All rights reserved                #
                  #                        -***-                        #
                  #######################################################



                         Program Version 5.0.4 -  RELEASE  -

 With contributions from (in alphabetic order):
   Daniel Aravena         : Magnetic Suceptibility
   Michael Atanasov       : Ab Initio Ligand Field Theory (pilot matlab implementation)
   Alexander A. Auer      : GIAO ZORA, VPT2 properties, NMR spectrum
   Ute Becker             : Parallelization
   Giovanni Bistoni       : ED, misc. LED, open-shell LED, HFLD
   Martin Brehm           : Molecular dynamics
   Dmytro Bykov           : SCF Hessian
   Vijay G. Chilkuri      : MRCI spin determinant printing, contributions to CSF-ICE
   Dipayan Datta          : RHF DLPNO-CCSD density
   Achintya Kumar Dutta   : EOM-CC, STEOM-CC
   Dmitry Ganyushin       : Spin-Orbit,Spin-Spin,Magnetic field MRCI
   Miquel Garcia          : C-PCM and meta-GGA Hessian, CC/C-PCM, Gaussian charge scheme
   Yang Guo               : DLPNO-NEVPT2, F12-NEVPT2, CIM, IAO-localization
   Andreas Hansen         : Spin unrestricted coupled pair/coupled cluster methods
   Benjamin Helmich-Paris : MC-RPA, TRAH-SCF, COSX integrals
   Lee Huntington         : MR-EOM, pCC
   Robert Izsak           : Overlap fitted RIJCOSX, COSX-SCS-MP3, EOM
   Marcus Kettner         : VPT2
   Christian Kollmar      : KDIIS, OOCD, Brueckner-CCSD(T), CCSD density, CASPT2, CASPT2-K
   Simone Kossmann        : Meta GGA functionals, TD-DFT gradient, OOMP2, MP2 Hessian
   Martin Krupicka        : Initial AUTO-CI
   Lucas Lang             : DCDCAS
   Marvin Lechner         : AUTO-CI (C++ implementation), FIC-MRCC
   Dagmar Lenk            : GEPOL surface, SMD
   Dimitrios Liakos       : Extrapolation schemes; Compound Job, initial MDCI parallelization
   Dimitrios Manganas     : Further ROCIS development; embedding schemes
   Dimitrios Pantazis     : SARC Basis sets
   Anastasios Papadopoulos: AUTO-CI, single reference methods and gradients
   Taras Petrenko         : DFT Hessian,TD-DFT gradient, ASA, ECA, R-Raman, ABS, FL, XAS/XES, NRVS
   Peter Pinski           : DLPNO-MP2, DLPNO-MP2 Gradient
   Christoph Reimann      : Effective Core Potentials
   Marius Retegan         : Local ZFS, SOC
   Christoph Riplinger    : Optimizer, TS searches, QM/MM, DLPNO-CCSD(T), (RO)-DLPNO pert. Triples
   Tobias Risthaus        : Range-separated hybrids, TD-DFT gradient, RPA, STAB
   Michael Roemelt        : Original ROCIS implementation
   Masaaki Saitow         : Open-shell DLPNO-CCSD energy and density
   Barbara Sandhoefer     : DKH picture change effects
   Avijit Sen             : IP-ROCIS
   Kantharuban Sivalingam : CASSCF convergence, NEVPT2, FIC-MRCI
   Bernardo de Souza      : ESD, SOC TD-DFT
   Georgi Stoychev        : AutoAux, RI-MP2 NMR, DLPNO-MP2 response
   Willem Van den Heuvel  : Paramagnetic NMR
   Boris Wezisla          : Elementary symmetry handling
   Frank Wennmohs         : Technical directorship


 We gratefully acknowledge several colleagues who have allowed us to
 interface, adapt or use parts of their codes:
   Stefan Grimme, W. Hujo, H. Kruse, P. Pracht,  : VdW corrections, initial TS optimization,
                  C. Bannwarth, S. Ehlert          DFT functionals, gCP, sTDA/sTD-DF
   Ed Valeev, F. Pavosevic, A. Kumar             : LibInt (2-el integral package), F12 methods
   Garnet Chan, S. Sharma, J. Yang, R. Olivares  : DMRG
   Ulf Ekstrom                                   : XCFun DFT Library
   Mihaly Kallay                                 : mrcc  (arbitrary order and MRCC methods)
   Jiri Pittner, Ondrej Demel                    : Mk-CCSD
   Frank Weinhold                                : gennbo (NPA and NBO analysis)
   Christopher J. Cramer and Donald G. Truhlar   : smd solvation model
   Lars Goerigk                                  : TD-DFT with DH, B97 family of functionals
   V. Asgeirsson, H. Jonsson                     : NEB implementation
   FAccTs GmbH                                   : IRC, NEB, NEB-TS, DLPNO-Multilevel, CI-OPT
                                                   MM, QMMM, 2- and 3-layer-ONIOM, Crystal-QMMM,
                                                   LR-CPCM, SF, NACMEs, symmetry and pop. for TD-DFT,
                                                   nearIR, NL-DFT gradient (VV10), updates on ESD,
                                                   ML-optimized integration grids
   S Lehtola, MJT Oliveira, MAL Marques          : LibXC Library
   Liviu Ungur et al                             : ANISO software


 Your calculation uses the libint2 library for the computation of 2-el integrals
 For citations please refer to: http://libint.valeyev.net

 Your ORCA version has been built with support for libXC version: 5.1.0
 For citations please refer to: https://tddft.org/programs/libxc/

 This ORCA versions uses:
   CBLAS   interface :  Fast vector & matrix operations
   LAPACKE interface :  Fast linear algebra routines
   Shared memory     :  Shared parallel matrices


================================================================================

----- Orbital basis set information -----
Your calculation utilizes the basis: def2-TZVP
   F. Weigend and R. Ahlrichs, Phys. Chem. Chem. Phys. 7, 3297 (2005).

----- AuxJ basis set information -----
Your calculation utilizes the auxiliary basis: def2/J
   F. Weigend, Phys. Chem. Chem. Phys. 8, 1057 (2006).

================================================================================
                                        WARNINGS
                       Please study these warnings very carefully!
================================================================================


WARNING: Geometry Optimization
  ===> : Switching off AutoStart
         For restart on a previous wavefunction, please use MOREAD

INFO   : the flag for use of the SHARK integral package has been found!

================================================================================
                                       INPUT FILE
================================================================================
NAME = Dexketoprofen\Dexketoprofen_PBE_def2-TZVP\Dexketoprofen_PBE_def2-TZVP.orcainp
|  1> # ORCA input file
|  2> # 
|  3> !PBE def2-TZVP Opt CPCM(WATER)
|  4> 
|  5> * xyz 0 1
|  6>    H        1.20129        -0.16932         0.23897
|  7>    C        2.26794        -0.11673        -0.02274
|  8>    C        3.06219        -0.56629         1.20342
|  9>    C        2.43159        -1.11202        -1.17182
| 10>    O        1.77888        -0.74114        -2.30430
| 11>    O        3.04791        -2.16647        -1.10611
| 12>    C        2.60248         1.32807        -0.37484
| 13>    C        3.66812         1.67324        -1.22306
| 14>    C        3.89277         3.01366        -1.58287
| 15>    C        3.12282         4.02608        -1.00191
| 16>    C        2.10481         3.69973        -0.10959
| 17>    C        1.83730         2.36158         0.18969
| 18>    C        4.92807         3.41042        -2.58203
| 19>    O        5.48927         4.49875        -2.46391
| 20>    C        5.27589         2.52516        -3.72903
| 21>    C        6.55331         2.62100        -4.29124
| 22>    C        6.92612         1.76780        -5.33332
| 23>    C        6.02518         0.81856        -5.81378
| 24>    C        4.73811         0.74719        -5.28495
| 25>    C        4.35571         1.61422        -4.26425
| 26>    H        2.74302        -1.56412         1.52440
| 27>    H        2.91450         0.11804         2.04595
| 28>    H        4.13600        -0.61445         0.99043
| 29>    H        1.29481         0.09946        -2.22163
| 30>    H        4.31939         0.89273        -1.61410
| 31>    H        3.31457         5.06879        -1.24530
| 32>    H        1.51553         4.48948         0.35131
| 33>    H        1.03152         2.13485         0.88711
| 34>    H        7.26495         3.35624        -3.91738
| 35>    H        7.92251         1.83890        -5.76326
| 36>    H        6.32312         0.13898        -6.60964
| 37>    H        4.03290         0.01141        -5.66607
| 38>    H        3.33494         1.55906        -3.89816
| 39> *
| 40> 
| 41>                          ****END OF INPUT****
================================================================================

                       *****************************
                       * Geometry Optimization Run *
                       *****************************

Geometry optimization settings:
Update method            Update   .... BFGS
Choice of coordinates    CoordSys .... Z-matrix Internals
Initial Hessian          InHess   .... Almoef's Model

Convergence Tolerances:
Energy Change            TolE     ....  5.0000e-06 Eh
Max. Gradient            TolMAXG  ....  3.0000e-04 Eh/bohr
RMS Gradient             TolRMSG  ....  1.0000e-04 Eh/bohr
Max. Displacement        TolMAXD  ....  4.0000e-03 bohr
RMS Displacement         TolRMSD  ....  2.0000e-03 bohr
Strict Convergence                ....  False
------------------------------------------------------------------------------
                        ORCA OPTIMIZATION COORDINATE SETUP
------------------------------------------------------------------------------

The optimization will be done in new redundant internal coordinates
Making redundant internal coordinates   ...  (new redundants) done
Evaluating the initial hessian          ...  (Almloef) done
Evaluating the coordinates              ...  done
Calculating the B-matrix                .... done
Calculating the G-matrix                .... done
Diagonalizing the G-matrix              .... done
Small eigenvalue found = 7.577e-03
Small eigenvalue found = 1.741e-02
Small eigenvalue found = 2.497e-02
The first mode is                       ....   76
The number of degrees of freedom        ....   93

    -----------------------------------------------------------------
                    Redundant Internal Coordinates


    -----------------------------------------------------------------
         Definition                    Initial Value    Approx d2E/dq
    -----------------------------------------------------------------
      1. B(C   1,H   0)                  1.0995         0.347691   
      2. B(C   2,C   1)                  1.5285         0.375597   
      3. B(C   3,C   1)                  1.5290         0.374982   
      4. B(O   4,C   3)                  1.3587         0.627764   
      5. B(O   5,C   3)                  1.2231         1.033035   
      6. B(C   6,C   1)                  1.5243         0.381550   
      7. B(C   7,C   6)                  1.4051         0.591157   
      8. B(C   8,C   7)                  1.4059         0.589269   
      9. B(C   9,C   8)                  1.3983         0.605962   
     10. B(C  10,C   9)                  1.3925         0.619062   
     11. B(C  11,C  10)                  1.3971         0.608801   
     12. B(C  11,C   6)                  1.4044         0.592605   
     13. B(C  12,C   8)                  1.4925         0.428737   
     14. B(O  13,C  12)                  1.2302         1.006577   
     15. B(C  14,C  12)                  1.4901         0.432616   
     16. B(C  15,C  14)                  1.3990         0.604583   
     17. B(C  16,C  15)                  1.3975         0.607927   
     18. B(C  17,C  16)                  1.3941         0.615394   
     19. B(C  18,C  17)                  1.3933         0.617252   
     20. B(C  19,C  18)                  1.3928         0.618478   
     21. B(C  19,C  14)                  1.4011         0.599893   
     22. B(H  20,C   2)                  1.0957         0.352636   
     23. B(H  21,C   2)                  1.0954         0.352982   
     24. B(H  22,C   2)                  1.0958         0.352524   
     25. B(H  23,O   4)                  0.9735         0.494739   
     26. B(H  24,C   7)                  1.0892         0.361218   
     27. B(H  25,C   9)                  1.0878         0.363058   
     28. B(H  26,C  10)                  1.0878         0.362976   
     29. B(H  27,C  11)                  1.0895         0.360718   
     30. B(H  28,C  15)                  1.0894         0.360902   
     31. B(H  29,C  16)                  1.0875         0.363398   
     32. B(H  30,C  17)                  1.0881         0.362605   
     33. B(H  31,H  23)                  4.4010         0.000000   
     34. B(H  31,C  18)                  1.0881         0.362632   
     35. B(H  32,C  19)                  1.0858         0.365653   
     36. A(C   2,C   1,C   3)          110.8425         0.363921   
     37. A(C   3,C   1,C   6)          114.8299         0.364901   
     38. A(H   0,C   1,C   2)          107.4018         0.322744   
     39. A(H   0,C   1,C   3)          104.5707         0.322657   
     40. A(H   0,C   1,C   6)          108.2540         0.323577   
     41. A(C   2,C   1,C   6)          110.4898         0.365003   
     42. A(C   1,C   2,H  21)          111.2962         0.323544   
     43. A(H  20,C   2,H  22)          107.5998         0.288920   
     44. A(C   1,C   2,H  20)          110.5776         0.323492   
     45. A(H  20,C   2,H  21)          107.7175         0.288979   
     46. A(H  21,C   2,H  22)          108.0033         0.288965   
     47. A(C   1,C   2,H  22)          111.4814         0.323475   
     48. A(O   4,C   3,O   5)          121.4775         0.471061   
     49. A(C   1,C   3,O   5)          125.0815         0.431823   
     50. A(C   1,C   3,O   4)          113.4094         0.395273   
     51. A(C   3,O   4,H  23)          113.8146         0.367755   
     52. A(C   7,C   6,C  11)          118.3663         0.426892   
     53. A(C   1,C   6,C  11)          119.0199         0.395012   
     54. A(C   1,C   6,C   7)          122.5997         0.394843   
     55. A(C   8,C   7,H  24)          119.7222         0.350073   
     56. A(C   6,C   7,C   8)          120.6570         0.426460   
     57. A(C   6,C   7,H  24)          119.6173         0.350262   
     58. A(C   7,C   8,C   9)          119.7339         0.428355   
     59. A(C   9,C   8,C  12)          117.8793         0.404785   
     60. A(C   7,C   8,C  12)          122.3854         0.402795   
     61. A(C   8,C   9,C  10)          119.9396         0.432164   
     62. A(C  10,C   9,H  25)          119.7952         0.353307   
     63. A(C   8,C   9,H  25)          120.2652         0.352031   
     64. A(C   9,C  10,H  26)          119.8262         0.353294   
     65. A(C  11,C  10,H  26)          120.0585         0.352296   
     66. A(C   9,C  10,C  11)          120.1149         0.432528   
     67. A(C  10,C  11,H  27)          118.5588         0.351924   
     68. A(C   6,C  11,H  27)          120.4717         0.350325   
     69. A(C   6,C  11,C  10)          120.9600         0.429148   
     70. A(O  13,C  12,C  14)          119.5397         0.441025   
     71. A(C   8,C  12,C  14)          121.2857         0.381596   
     72. A(C   8,C  12,O  13)          119.1661         0.440308   
     73. A(C  15,C  14,C  19)          119.3888         0.429554   
     74. A(C  12,C  14,C  19)          121.8047         0.404709   
     75. A(C  12,C  14,C  15)          118.8031         0.405266   
     76. A(C  14,C  15,C  16)          120.0965         0.430581   
     77. A(C  16,C  15,H  28)          119.5839         0.351869   
     78. A(C  14,C  15,H  28)          120.3189         0.351541   
     79. A(C  15,C  16,C  17)          120.0196         0.431954   
     80. A(C  17,C  16,H  29)          120.0236         0.353008   
     81. A(C  15,C  16,H  29)          119.9546         0.352280   
     82. A(C  16,C  17,C  18)          120.0686         0.433138   
     83. A(C  18,C  17,H  30)          119.9043         0.353058   
     84. A(C  16,C  17,H  30)          120.0241         0.352878   
     85. A(C  17,C  18,C  19)          119.9931         0.433528   
     86. A(C  19,C  18,H  31)          119.9804         0.353181   
     87. A(C  17,C  18,H  31)          120.0260         0.353062   
     88. A(C  14,C  19,C  18)          120.2903         0.431310   
     89. A(C  18,C  19,H  32)          118.2662         0.353677   
     90. A(C  14,C  19,H  32)          121.4429         0.351856   
     91. D(H  20,C   2,C   1,C   3)    -57.7773         0.011258   
     92. D(H  22,C   2,C   1,H   0)    175.5482         0.011258   
     93. D(H  21,C   2,C   1,C   3)   -177.4624         0.011258   
     94. D(H  21,C   2,C   1,H   0)    -63.7953         0.011258   
     95. D(H  21,C   2,C   1,C   6)     54.0795         0.011258   
     96. D(H  20,C   2,C   1,C   6)    173.7647         0.011258   
     97. D(H  22,C   2,C   1,C   6)    -66.5770         0.011258   
     98. D(H  20,C   2,C   1,H   0)     55.8898         0.011258   
     99. D(H  22,C   2,C   1,C   3)     61.8811         0.011258   
    100. D(O   5,C   3,C   1,C   2)      3.9480         0.010510   
    101. D(O   5,C   3,C   1,H   0)   -111.4946         0.010510   
    102. D(O   4,C   3,C   1,C   6)    -52.0073         0.010510   
    103. D(O   4,C   3,C   1,C   2)   -178.0832         0.010510   
    104. D(O   5,C   3,C   1,C   6)    130.0239         0.010510   
    105. D(O   4,C   3,C   1,H   0)     66.4742         0.010510   
    106. D(H  23,O   4,C   3,O   5)    177.5668         0.028966   
    107. D(H  23,O   4,C   3,C   1)     -0.4842         0.028966   
    108. D(C  11,C   6,C   1,C   2)    -90.5096         0.010858   
    109. D(C  11,C   6,C   1,H   0)     26.8413         0.010858   
    110. D(C   7,C   6,C   1,C   3)    -38.1577         0.010858   
    111. D(C  11,C   6,C   1,C   3)    143.2325         0.010858   
    112. D(C   7,C   6,C   1,C   2)     88.1002         0.010858   
    113. D(C   7,C   6,C   1,H   0)   -154.5489         0.010858   
    114. D(H  24,C   7,C   6,C  11)    175.5750         0.024054   
    115. D(H  24,C   7,C   6,C   1)     -3.0435         0.024054   
    116. D(C   8,C   7,C   6,C  11)     -5.1084         0.024054   
    117. D(C   8,C   7,C   6,C   1)    176.2731         0.024054   
    118. D(C  12,C   8,C   7,H  24)      5.3373         0.023893   
    119. D(C  12,C   8,C   7,C   6)   -173.9785         0.023893   
    120. D(C   9,C   8,C   7,H  24)   -175.1140         0.023893   
    121. D(C   9,C   8,C   7,C   6)      5.5702         0.023893   
    122. D(H  25,C   9,C   8,C  12)     -2.7683         0.025341   
    123. D(H  25,C   9,C   8,C   7)    177.6629         0.025341   
    124. D(C  10,C   9,C   8,C  12)    177.1333         0.025341   
    125. D(C  10,C   9,C   8,C   7)     -2.4355         0.025341   
    126. D(H  26,C  10,C   9,H  25)     -0.8994         0.026514   
    127. D(H  26,C  10,C   9,C   8)    179.1986         0.026514   
    128. D(C  11,C  10,C   9,H  25)    178.8712         0.026514   
    129. D(C  11,C  10,C   9,C   8)     -1.0308         0.026514   
    130. D(H  27,C  11,C  10,C   9)   -179.6716         0.025592   
    131. D(C   6,C  11,C  10,H  26)   -178.7877         0.025592   
    132. D(C   6,C  11,C  10,C   9)      1.4423         0.025592   
    133. D(H  27,C  11,C   6,C   7)   -177.2528         0.024178   
    134. D(H  27,C  11,C   6,C   1)      1.4162         0.024178   
    135. D(C  10,C  11,C   6,C   7)      1.6120         0.024178   
    136. D(H  27,C  11,C  10,H  26)      0.0984         0.025592   
    137. D(C  10,C  11,C   6,C   1)   -179.7190         0.024178   
    138. D(C  14,C  12,C   8,C   9)   -147.2973         0.012561   
    139. D(C  14,C  12,C   8,C   7)     32.2594         0.012561   
    140. D(O  13,C  12,C   8,C   9)     31.6415         0.012561   
    141. D(O  13,C  12,C   8,C   7)   -148.8019         0.012561   
    142. D(C  19,C  14,C  12,O  13)   -151.8056         0.012782   
    143. D(C  19,C  14,C  12,C   8)     27.1292         0.012782   
    144. D(C  15,C  14,C  12,O  13)     27.5187         0.012782   
    145. D(C  15,C  14,C  12,C   8)   -153.5464         0.012782   
    146. D(H  28,C  15,C  14,C  19)    177.1443         0.025219   
    147. D(H  28,C  15,C  14,C  12)     -2.1968         0.025219   
    148. D(C  16,C  15,C  14,C  19)     -3.1666         0.025219   
    149. D(C  16,C  15,C  14,C  12)    177.4924         0.025219   
    150. D(H  29,C  16,C  15,H  28)      0.1862         0.025515   
    151. D(H  29,C  16,C  15,C  14)   -179.5052         0.025515   
    152. D(C  17,C  16,C  15,H  28)    179.6441         0.025515   
    153. D(C  17,C  16,C  15,C  14)     -0.0473         0.025515   
    154. D(H  30,C  17,C  16,H  29)      0.8611         0.026182   
    155. D(H  30,C  17,C  16,C  15)   -178.5964         0.026182   
    156. D(C  18,C  17,C  16,H  29)   -178.5110         0.026182   
    157. D(C  18,C  17,C  16,C  15)      2.0315         0.026182   
    158. D(H  31,C  18,C  17,H  30)      0.1294         0.026350   
    159. D(H  31,C  18,C  17,C  16)    179.5023         0.026350   
    160. D(C  19,C  18,C  17,H  30)    179.8621         0.026350   
    161. D(C  19,C  18,C  17,C  16)     -0.7650         0.026350   
    162. D(H  32,C  19,C  18,C  17)    177.7692         0.026461   
    163. D(C  14,C  19,C  18,H  31)    177.2432         0.026461   
    164. D(C  14,C  19,C  18,C  17)     -2.4896         0.026461   
    165. D(H  32,C  19,C  14,C  15)   -175.8253         0.024808   
    166. D(H  32,C  19,C  14,C  12)      3.4952         0.024808   
    167. D(C  18,C  19,C  14,C  15)      4.4419         0.024808   
    168. D(H  32,C  19,C  18,H  31)     -2.4979         0.026461   
    169. D(C  18,C  19,C  14,C  12)   -176.2376         0.024808   
    -----------------------------------------------------------------

Number of atoms                         .... 33
Number of degrees of freedom            .... 169

         *************************************************************
         *                GEOMETRY OPTIMIZATION CYCLE   1            *
         *************************************************************
---------------------------------
CARTESIAN COORDINATES (ANGSTROEM)
---------------------------------
  H      1.201290   -0.169320    0.238970
  C      2.267940   -0.116730   -0.022740
  C      3.062190   -0.566290    1.203420
  C      2.431590   -1.112020   -1.171820
  O      1.778880   -0.741140   -2.304300
  O      3.047910   -2.166470   -1.106110
  C      2.602480    1.328070   -0.374840
  C      3.668120    1.673240   -1.223060
  C      3.892770    3.013660   -1.582870
  C      3.122820    4.026080   -1.001910
  C      2.104810    3.699730   -0.109590
  C      1.837300    2.361580    0.189690
  C      4.928070    3.410420   -2.582030
  O      5.489270    4.498750   -2.463910
  C      5.275890    2.525160   -3.729030
  C      6.553310    2.621000   -4.291240
  C      6.926120    1.767800   -5.333320
  C      6.025180    0.818560   -5.813780
  C      4.738110    0.747190   -5.284950
  C      4.355710    1.614220   -4.264250
  H      2.743020   -1.564120    1.524400
  H      2.914500    0.118040    2.045950
  H      4.136000   -0.614450    0.990430
  H      1.294810    0.099460   -2.221630
  H      4.319390    0.892730   -1.614100
  H      3.314570    5.068790   -1.245300
  H      1.515530    4.489480    0.351310
  H      1.031520    2.134850    0.887110
  H      7.264950    3.356240   -3.917380
  H      7.922510    1.838900   -5.763260
  H      6.323120    0.138980   -6.609640
  H      4.032900    0.011410   -5.666070
  H      3.334940    1.559060   -3.898160

----------------------------
CARTESIAN COORDINATES (A.U.)
----------------------------
  NO LB      ZA    FRAG     MASS         X           Y           Z
   0 H     1.0000    0     1.008    2.270109   -0.319968    0.451588
   1 C     6.0000    0    12.011    4.285785   -0.220588   -0.042972
   2 C     6.0000    0    12.011    5.786700   -1.070133    2.274134
   3 C     6.0000    0    12.011    4.595039   -2.101413   -2.214419
   4 O     8.0000    0    15.999    3.361596   -1.400552   -4.354496
   5 O     8.0000    0    15.999    5.759715   -4.094035   -2.090245
   6 C     6.0000    0    12.011    4.917974    2.509689   -0.708345
   7 C     6.0000    0    12.011    6.931742    3.161965   -2.311248
   8 C     6.0000    0    12.011    7.356269    5.694992   -2.991191
   9 C     6.0000    0    12.011    5.901275    7.608189   -1.893336
  10 C     6.0000    0    12.011    3.977514    6.991476   -0.207095
  11 C     6.0000    0    12.011    3.471994    4.462739    0.358462
  12 C     6.0000    0    12.011    9.312703    6.444760   -4.879330
  13 O     8.0000    0    15.999   10.373217    8.501405   -4.656115
  14 C     6.0000    0    12.011    9.969987    4.771861   -7.046845
  15 C     6.0000    0    12.011   12.383961    4.952972   -8.109268
  16 C     6.0000    0    12.011   13.088470    3.340658  -10.078514
  17 C     6.0000    0    12.011   11.385940    1.546854  -10.986452
  18 C     6.0000    0    12.011    8.953730    1.411984   -9.987108
  19 C     6.0000    0    12.011    8.231099    3.050434   -8.058265
  20 H     1.0000    0     1.008    5.183557   -2.955758    2.880699
  21 H     1.0000    0     1.008    5.507607    0.223063    3.866285
  22 H     1.0000    0     1.008    7.815907   -1.161142    1.871641
  23 H     1.0000    0     1.008    2.446836    0.187952   -4.198272
  24 H     1.0000    0     1.008    8.162464    1.687015   -3.050207
  25 H     1.0000    0     1.008    6.263630    9.578625   -2.353276
  26 H     1.0000    0     1.008    2.863937    8.483888    0.663880
  27 H     1.0000    0     1.008    1.949290    4.034282    1.676395
  28 H     1.0000    0     1.008   13.728766    6.342374   -7.402775
  29 H     1.0000    0     1.008   14.971374    3.475017  -10.890983
  30 H     1.0000    0     1.008   11.948965    0.262634  -12.490409
  31 H     1.0000    0     1.008    7.621077    0.021562  -10.707321
  32 H     1.0000    0     1.008    6.302123    2.946196   -7.366455

--------------------------------
INTERNAL COORDINATES (ANGSTROEM)
--------------------------------
 H      0   0   0     0.000000000000     0.00000000     0.00000000
 C      1   0   0     1.099545385466     0.00000000     0.00000000
 C      2   1   0     1.528530536725   107.40184304     0.00000000
 C      2   1   3     1.528976243439   104.57066696   117.82181232
 O      4   2   1     1.358710148965   113.40937132    66.47419400
 O      4   2   1     1.223124257384   125.08146123   248.50542881
 C      2   1   3     1.524250130917   108.25396870   240.68297565
 C      7   2   1     1.405065161087   122.59966495   205.45106012
 C      8   7   2     1.405936212991   120.65696885   176.27308761
 C      9   8   7     1.398331784842   119.73385859     5.57017989
 C     10   9   8     1.392509843771   119.93955219   357.56445915
 C     11  10   9     1.397059605386   120.11491138   358.96915744
 C      9   8   7     1.492509729684   122.38539064   186.02146003
 O     13   9   8     1.230186962742   119.16614643   211.19814032
 C     13   9   8     1.490058059272   121.28572938    32.25938995
 C     15  13   9     1.398952195788   118.80309306   206.45358636
 C     16  15  13     1.397450629718   120.09645342   177.49238495
 C     17  16  15     1.394127423445   120.01962203   359.95265421
 C     18  17  16     1.393306868820   120.06864705     2.03151075
 C     19  18  17     1.392766768307   119.99306793   359.23496767
 H      3   2   1     1.095701765172   110.57761066    55.88984251
 H      3   2   1     1.095434473577   111.29620666   296.20468617
 H      3   2   1     1.095788319795   111.48142907   175.54820722
 H      5   4   2     0.973532975199   113.81456996   359.51577966
 H      8   7   2     1.089155982676   119.61731512   356.95652055
 H     10   9   8     1.087773367343   120.26518371   177.66287748
 H     11  10   9     1.087834909763   119.82623444   179.19859480
 H     12  11  10     1.089533183386   118.55882667   180.32837245
 H     16  15  13     1.089394624000   120.31894726   357.80324183
 H     17  16  15     1.087518572577   119.95459473   180.49480250
 H     18  17  16     1.088113210838   120.02412603   181.40359222
 H     19  18  17     1.088092738189   120.02601343   179.50227627
 H     20  19  18     1.085834198485   118.26622754   177.76924758

---------------------------
INTERNAL COORDINATES (A.U.)
---------------------------
 H      0   0   0     0.000000000000     0.00000000     0.00000000
 C      1   0   0     2.077839650348     0.00000000     0.00000000
 C      2   1   0     2.888504101745   107.40184304     0.00000000
 C      2   1   3     2.889346365371   104.57066696   117.82181232
 O      4   2   1     2.567590076923   113.40937132    66.47419400
 O      4   2   1     2.311369874211   125.08146123   248.50542881
 C      2   1   3     2.880415307026   108.25396870   240.68297565
 C      7   2   1     2.655188354768   122.59966495   205.45106012
 C      8   7   2     2.656834404316   120.65696885   176.27308761
 C      9   8   7     2.642464117709   119.73385859     5.57017989
 C     10   9   8     2.631462243517   119.93955219   357.56445915
 C     11  10   9     2.640060046943   120.11491138   358.96915744
 C      9   8   7     2.820434641315   122.38539064   186.02146003
 O     13   9   8     2.324716453102   119.16614643   211.19814032
 C     13   9   8     2.815801655665   121.28572938    32.25938995
 C     15  13   9     2.643636524487   118.80309306   206.45358636
 C     16  15  13     2.640798975843   120.09645342   177.49238495
 C     17  16  15     2.634519026099   120.01962203   359.95265421
 C     18  17  16     2.632968402580   120.06864705     2.03151075
 C     19  18  17     2.631947760527   119.99306793   359.23496767
 H      3   2   1     2.070576260628   110.57761066    55.88984251
 H      3   2   1     2.070071152716   111.29620666   296.20468617
 H      3   2   1     2.070739825163   111.48142907   175.54820722
 H      5   4   2     1.839710705468   113.81456996   359.51577966
 H      8   7   2     2.058206524380   119.61731512   356.95652055
 H     10   9   8     2.055593760051   120.26518371   177.66287748
 H     11  10   9     2.055710058372   119.82623444   179.19859480
 H     12  11  10     2.058919330420   118.55882667   180.32837245
 H     16  15  13     2.058657491126   120.31894726   357.80324183
 H     17  16  15     2.055112267724   119.95459473   180.49480250
 H     18  17  16     2.056235971185   120.02412603   181.40359222
 H     19  18  17     2.056197283486   120.02601343   179.50227627
 H     20  19  18     2.051929261983   118.26622754   177.76924758

---------------------
BASIS SET INFORMATION
---------------------
There are 3 groups of distinct atoms

 Group   1 Type H   : 5s1p contracted to 3s1p pattern {311/1}
 Group   2 Type C   : 11s6p2d1f contracted to 5s3p2d1f pattern {62111/411/11/1}
 Group   3 Type O   : 11s6p2d1f contracted to 5s3p2d1f pattern {62111/411/11/1}

Atom   0H    basis set group =>   1
Atom   1C    basis set group =>   2
Atom   2C    basis set group =>   2
Atom   3C    basis set group =>   2
Atom   4O    basis set group =>   3
Atom   5O    basis set group =>   3
Atom   6C    basis set group =>   2
Atom   7C    basis set group =>   2
Atom   8C    basis set group =>   2
Atom   9C    basis set group =>   2
Atom  10C    basis set group =>   2
Atom  11C    basis set group =>   2
Atom  12C    basis set group =>   2
Atom  13O    basis set group =>   3
Atom  14C    basis set group =>   2
Atom  15C    basis set group =>   2
Atom  16C    basis set group =>   2
Atom  17C    basis set group =>   2
Atom  18C    basis set group =>   2
Atom  19C    basis set group =>   2
Atom  20H    basis set group =>   1
Atom  21H    basis set group =>   1
Atom  22H    basis set group =>   1
Atom  23H    basis set group =>   1
Atom  24H    basis set group =>   1
Atom  25H    basis set group =>   1
Atom  26H    basis set group =>   1
Atom  27H    basis set group =>   1
Atom  28H    basis set group =>   1
Atom  29H    basis set group =>   1
Atom  30H    basis set group =>   1
Atom  31H    basis set group =>   1
Atom  32H    basis set group =>   1
---------------------------------
AUXILIARY/J BASIS SET INFORMATION
---------------------------------
There are 3 groups of distinct atoms

 Group   1 Type H   : 5s2p1d contracted to 3s1p1d pattern {311/2/1}
 Group   2 Type C   : 12s5p4d2f1g contracted to 6s4p3d1f1g pattern {711111/2111/211/2/1}
 Group   3 Type O   : 12s5p4d2f1g contracted to 6s4p3d1f1g pattern {711111/2111/211/2/1}

Atom   0H    basis set group =>   1
Atom   1C    basis set group =>   2
Atom   2C    basis set group =>   2
Atom   3C    basis set group =>   2
Atom   4O    basis set group =>   3
Atom   5O    basis set group =>   3
Atom   6C    basis set group =>   2
Atom   7C    basis set group =>   2
Atom   8C    basis set group =>   2
Atom   9C    basis set group =>   2
Atom  10C    basis set group =>   2
Atom  11C    basis set group =>   2
Atom  12C    basis set group =>   2
Atom  13O    basis set group =>   3
Atom  14C    basis set group =>   2
Atom  15C    basis set group =>   2
Atom  16C    basis set group =>   2
Atom  17C    basis set group =>   2
Atom  18C    basis set group =>   2
Atom  19C    basis set group =>   2
Atom  20H    basis set group =>   1
Atom  21H    basis set group =>   1
Atom  22H    basis set group =>   1
Atom  23H    basis set group =>   1
Atom  24H    basis set group =>   1
Atom  25H    basis set group =>   1
Atom  26H    basis set group =>   1
Atom  27H    basis set group =>   1
Atom  28H    basis set group =>   1
Atom  29H    basis set group =>   1
Atom  30H    basis set group =>   1
Atom  31H    basis set group =>   1
Atom  32H    basis set group =>   1
------------------------------------------------------------------------------
                           ORCA GTO INTEGRAL CALCULATION
                           -- RI-GTO INTEGRALS CHOSEN --
------------------------------------------------------------------------------
------------------------------------------------------------------------------
                   ___                                                        
                  /   \      - P O W E R E D   B Y -                         
                 /     \                                                     
                 |  |  |   _    _      __       _____    __    __             
                 |  |  |  | |  | |    /  \     |  _  \  |  |  /  |          
                  \  \/   | |  | |   /    \    | | | |  |  | /  /          
                 / \  \   | |__| |  /  /\  \   | |_| |  |  |/  /          
                |  |  |   |  __  | /  /__\  \  |    /   |      \           
                |  |  |   | |  | | |   __   |  |    \   |  |\   \          
                \     /   | |  | | |  |  |  |  | |\  \  |  | \   \       
                 \___/    |_|  |_| |__|  |__|  |_| \__\ |__|  \__/        
                                                                              
                      - O R C A' S   B I G   F R I E N D -                    
                                      &                                       
                       - I N T E G R A L  F E E D E R -                       
                                                                              
 v1 FN, 2020, v2 2021                                                         
------------------------------------------------------------------------------


Reading SHARK input file Dexketoprofen\Dexketoprofen_PBE_def2-TZVP\Dexketoprofen_PBE_def2-TZVP.orcainp.SHARKINP.tmp ... ok
----------------------
SHARK INTEGRAL PACKAGE
----------------------

Number of atoms                             ...     33
Number of basis functions                   ...    673
Number of shells                            ...    265
Maximum angular momentum                    ...      3
Integral batch strategy                     ... SHARK/LIBINT Hybrid
RI-J (if used) integral strategy            ... SPLIT-RIJ (Revised 2003 algorithm where possible)
Printlevel                                  ...      1
Contraction scheme used                     ... SEGMENTED contraction
Coulomb Range Separation                    ... NOT USED
Exchange Range Separation                   ... NOT USED
Finite Nucleus Model                        ... NOT USED
Auxiliary Coulomb fitting basis             ... AVAILABLE
   # of basis functions in Aux-J            ...   1085
   # of shells in Aux-J                     ...    355
   Maximum angular momentum in Aux-J        ...      4
Auxiliary J/K fitting basis                 ... NOT available
Auxiliary Correlation fitting basis         ... NOT available
Auxiliary 'external' fitting basis          ... NOT available
Integral threshold                          ...     2.500000e-11
Primitive cut-off                           ...     2.500000e-12
Primitive pair pre-selection threshold      ...     2.500000e-12

Calculating pre-screening integrals         ... done (  0.1 sec) Dimension = 265
Organizing shell pair data                  ... done (  0.1 sec)
Shell pair information
Total number of shell pairs                 ...     35245
Shell pairs after pre-screening             ...     26404
Total number of primitive shell pairs       ...    108340
Primitive shell pairs kept                  ...     54823
          la=0 lb=0:   6808 shell pairs
          la=1 lb=0:   7575 shell pairs
          la=1 lb=1:   2130 shell pairs
          la=2 lb=0:   3785 shell pairs
          la=2 lb=1:   2121 shell pairs
          la=2 lb=2:    550 shell pairs
          la=3 lb=0:   1783 shell pairs
          la=3 lb=1:   1021 shell pairs
          la=3 lb=2:    507 shell pairs
          la=3 lb=3:    124 shell pairs

Calculating one electron integrals          ... done (  0.1 sec)
Calculating RI/J V-Matrix + Cholesky decomp.... done (  0.0 sec)
Calculating Nuclear repulsion               ... done (  0.0 sec) ENN=   1336.467642176996 Eh

SHARK setup successfully completed in   0.6 seconds

Maximum memory used throughout the entire GTOINT-calculation: 343.9 MB
-------------------------------------------------------------------------------
                                 ORCA SCF
-------------------------------------------------------------------------------

------------
SCF SETTINGS
------------
Hamiltonian:
 Density Functional     Method          .... DFT(GTOs)
 Exchange Functional    Exchange        .... PBE
   PBE kappa parameter   XKappa         ....  0.804000
   PBE mue parameter    XMuePBE         ....  0.219520
 Correlation Functional Correlation     .... PBE
   PBE beta parameter  CBetaPBE         ....  0.066725
 LDA part of GGA corr.  LDAOpt          .... PW91-LDA
 Gradients option       PostSCFGGA      .... off
   Density functional embedding theory  .... OFF
   NL short-range parameter             ....  6.400000
 RI-approximation to the Coulomb term is turned on
   Number of AuxJ basis functions       .... 1085


General Settings:
 Integral files         IntName         .... Dexketoprofen\Dexketoprofen_PBE_def2-TZVP\Dexketoprofen_PBE_def2-TZVP.orcainp
 Hartree-Fock type      HFTyp           .... RHF
 Total Charge           Charge          ....    0
 Multiplicity           Mult            ....    1
 Number of Electrons    NEL             ....  134
 Basis Dimension        Dim             ....  673
 Nuclear Repulsion      ENuc            ....   1336.4676421770 Eh

Convergence Acceleration:
 DIIS                   CNVDIIS         .... on
   Start iteration      DIISMaxIt       ....    12
   Startup error        DIISStart       ....  0.200000
   # of expansion vecs  DIISMaxEq       ....     5
   Bias factor          DIISBfac        ....   1.050
   Max. coefficient     DIISMaxC        ....  10.000
 Trust-Rad. Augm. Hess. CNVTRAH         .... auto
   Auto Start mean grad. ratio tolernc. ....  1.125000
   Auto Start start iteration           ....    20
   Auto Start num. interpolation iter.  ....    10
   Max. Number of Micro iterations      ....    16
   Max. Number of Macro iterations      .... Maxiter - #DIIS iter
   Number of Davidson start vectors     ....     2
   Converg. threshold I  (grad. norm)   ....   1.000e-05
   Converg. threshold II (energy diff.) ....   1.000e-08
   Grad. Scal. Fac. for Micro threshold ....   0.100
   Minimum threshold for Micro iter.    ....   0.010
   NR start threshold (gradient norm)   ....   0.001
   Initial trust radius                 ....   0.400
   Minimum AH scaling param. (alpha)    ....   1.000
   Maximum AH scaling param. (alpha)    .... 1000.000
   Orbital update algorithm             .... Taylor
   White noise on init. David. guess    .... on
   Maximum white noise                  ....   0.010
   Quad. conv. algorithm                .... NR
 SOSCF                  CNVSOSCF        .... on
   Start iteration      SOSCFMaxIt      ....   150
   Startup grad/error   SOSCFStart      ....  0.003300
 Level Shifting         CNVShift        .... on
   Level shift para.    LevelShift      ....    0.2500
   Turn off err/grad.   ShiftErr        ....    0.0010
 Zerner damping         CNVZerner       .... off
 Static damping         CNVDamp         .... on
   Fraction old density DampFac         ....    0.7000
   Max. Damping (<1)    DampMax         ....    0.9800
   Min. Damping (>=0)   DampMin         ....    0.0000
   Turn off err/grad.   DampErr         ....    0.1000
 Fernandez-Rico         CNVRico         .... off

SCF Procedure:
 Maximum # iterations   MaxIter         ....   125
 SCF integral mode      SCFMode         .... Direct
   Integral package                     .... SHARK and LIBINT hybrid scheme
 Reset frequency        DirectResetFreq ....    20
 Integral Threshold     Thresh          ....  2.500e-11 Eh
 Primitive CutOff       TCut            ....  2.500e-12 Eh

Convergence Tolerance:
 Convergence Check Mode ConvCheckMode   .... Total+1el-Energy
 Convergence forced     ConvForced      .... 0
 Energy Change          TolE            ....  1.000e-08 Eh
 1-El. energy change                    ....  1.000e-05 Eh
 Orbital Gradient       TolG            ....  1.000e-05
 Orbital Rotation angle TolX            ....  1.000e-05
 DIIS Error             TolErr          ....  5.000e-07


Diagonalization of the overlap matrix:
Smallest eigenvalue                        ... 6.970e-06
Time for diagonalization                   ...    0.031 sec
Threshold for overlap eigenvalues          ... 1.000e-08
Number of eigenvalues below threshold      ... 0
Time for construction of square roots      ...    0.022 sec
Total time needed                          ...    0.054 sec

Time for model grid setup =    0.384 sec

------------------------------
INITIAL GUESS: MODEL POTENTIAL
------------------------------
Loading Hartree-Fock densities                     ... done
Calculating cut-offs                               ... done
Initializing the effective Hamiltonian             ... done
Setting up the integral package (SHARK)            ... done
Starting the Coulomb interaction                   ... done (   0.8 sec)
Reading the grid                                   ... done
Mapping shells                                     ... done
Starting the XC term evaluation                    ... done (   0.8 sec)
  promolecular density results
     # of electrons  =    133.989475410
     EX              =   -110.372654151
     EC              =     -4.477155516
     EX+EC           =   -114.849809667
Transforming the Hamiltonian                       ... done (   0.0 sec)
Diagonalizing the Hamiltonian                      ... done (   0.0 sec)
Back transforming the eigenvectors                 ... done (   0.0 sec)
Now organizing SCF variables                       ... done
                      ------------------
                      INITIAL GUESS DONE (   2.1 sec)
                      ------------------
-------------------
DFT GRID GENERATION
-------------------

General Integration Accuracy     IntAcc      ... 4.388
Radial Grid Type                 RadialGrid  ... OptM3 with GC (2021)
Angular Grid (max. ang.)         AngularGrid ... 4 (Lebedev-302)
Angular grid pruning method      GridPruning ... 4 (adaptive)
Weight generation scheme         WeightScheme... Becke
Basis function cutoff            BFCut       ... 1.0000e-11
Integration weight cutoff        WCut        ... 1.0000e-14
Angular grids for H and He will be reduced by one unit
Partially contracted basis set               ... off
Rotationally invariant grid construction     ... off

Total number of grid points                  ...   158427
Total number of batches                      ...     2494
Average number of points per batch           ...       63
Average number of grid points per atom       ...     4801
Time for grid setup =    1.342 sec


--------------------
CPCM SOLVATION MODEL
--------------------
CPCM parameters:
  Epsilon                                         ...      80.4000
  Refrac                                          ...       1.3300
  Rsolv                                           ...       1.3000
  Surface type                                    ... GAUSSIAN VDW
  Epsilon function type                           ...         CPCM
Radii:
 Radius for H  used is    2.4944 Bohr (=   1.3200 Ang.)
 Radius for C  used is    3.8550 Bohr (=   2.0400 Ang.)
 Radius for O  used is    3.4469 Bohr (=   1.8240 Ang.)
Calculating surface                               ...        done! (  0.0s)
GEPOL surface points                              ...         1773
GEPOL Volume                                      ...    2081.6078
GEPOL Surface-area                                ...    1084.9852
Calculating surface distance matrix               ...        done! (  0.0s)
Performing Cholesky decomposition & store         ...        done! (  0.0s)
Overall time for CPCM initialization              ...                 0.1s
--------------
SCF ITERATIONS
--------------
ITER       Energy         Delta-E        Max-DP      RMS-DP      [F,P]     Damp
               ***  Starting incremental Fock matrix formation  ***
  0   -842.6894551461   0.000000000000 0.27646888  0.00125875  0.2631928 0.7000
  1   -842.9102228272  -0.220767681133 0.23044278  0.00101291  0.0773476 0.7000
                               ***Turning on DIIS***
  2   -842.9797679749  -0.069545147667 0.20048247  0.00136244  0.0233010 0.0000
  3   -843.1055733953  -0.125805420400 0.21071671  0.00082551  0.0498729 0.0000
  4   -843.1295335237  -0.023960128428 0.03855479  0.00023354  0.0264759 0.0000
  5   -843.1331384715  -0.003604947723 0.01774385  0.00011398  0.0059037 0.0000
                      *** Initiating the SOSCF procedure ***
                           *** Shutting down DIIS ***
                      *** Re-Reading the Fockian *** 
                      *** Removing any level shift *** 
ITER      Energy       Delta-E        Grad      Rot      Max-DP    RMS-DP
  6   -843.13327528  -0.0001368094  0.000232  0.000232  0.002832  0.000037
               *** Restarting incremental Fock matrix formation ***
  7   -843.13329157  -0.0000162893  0.000136  0.000984  0.002042  0.000027
  8   -843.13328622   0.0000053534  0.000332  0.000735  0.001108  0.000010
  9   -843.13329367  -0.0000074482  0.000031  0.000155  0.000358  0.000003
 10   -843.13329342   0.0000002498  0.000080  0.000098  0.000331  0.000002
 11   -843.13329374  -0.0000003245  0.000011  0.000046  0.000178  0.000001
 12   -843.13329371   0.0000000342  0.000026  0.000036  0.000104  0.000001
 13   -843.13329375  -0.0000000424  0.000003  0.000010  0.000152  0.000002
 14   -843.13329372   0.0000000233  0.000004  0.000007  0.000132  0.000001
                  ***Gradient check signals convergence***
              ***Rediagonalizing the Fockian in SOSCF/NRSCF***

               *****************************************************
               *                     SUCCESS                       *
               *           SCF CONVERGED AFTER  15 CYCLES          *
               *****************************************************


----------------
TOTAL SCF ENERGY
----------------

Total Energy       :         -843.13329377 Eh          -22942.82331 eV

Components:
Nuclear Repulsion  :         1336.46764218 Eh           36367.13341 eV
Electronic Energy  :        -2179.60093595 Eh          -59309.95673 eV
One Electron Energy:        -3799.87065502 Eh         -103399.73726 eV
Two Electron Energy:         1620.26971907 Eh           44089.78054 eV
CPCM Dielectric    :           -0.02873132 Eh              -0.78182 eV

Virial components:
Potential Energy   :        -1682.53194851 Eh          -45784.02193 eV
Kinetic Energy     :          839.39865474 Eh           22841.19862 eV
Virial Ratio       :            2.00444918


DFT components:
N(Alpha)           :       66.999957751782 electrons
N(Beta)            :       66.999957751782 electrons
N(Total)           :      133.999915503563 electrons
E(X)               :     -112.355797680929 Eh       
E(C)               :       -4.477439112076 Eh       
E(XC)              :     -116.833236793004 Eh       
DFET-embed. en.    :        0.000000000000 Eh       
CPCM Solvation Model Properties:
Surface-charge          :           -0.03134907
Charge-correction       :            0.00007886 Eh               0.00215 eV
Free-energy (cav+disp)  :  This term is not implemented in the current solvation scheme

---------------
SCF CONVERGENCE
---------------

  Last Energy change         ...   -4.4884e-08  Tolerance :   1.0000e-08
  Last MAX-Density change    ...    1.8414e-04  Tolerance :   1.0000e-07
  Last RMS-Density change    ...    2.0954e-06  Tolerance :   5.0000e-09
  Last Orbital Gradient      ...    8.3059e-07  Tolerance :   1.0000e-05
  Last Orbital Rotation      ...    3.3572e-06  Tolerance :   1.0000e-05

             **** THE GBW FILE WAS UPDATED (Dexketoprofen\Dexketoprofen_PBE_def2-TZVP\Dexketoprofen_PBE_def2-TZVP.orcainp.gbw) ****
             **** DENSITY Dexketoprofen\Dexketoprofen_PBE_def2-TZVP\Dexketoprofen_PBE_def2-TZVP.orcainp.scfp WAS UPDATED ****
             **** ENERGY FILE WAS UPDATED (Dexketoprofen\Dexketoprofen_PBE_def2-TZVP\Dexketoprofen_PBE_def2-TZVP.orcainp.en.tmp) ****
             **** THE GBW FILE WAS UPDATED (Dexketoprofen\Dexketoprofen_PBE_def2-TZVP\Dexketoprofen_PBE_def2-TZVP.orcainp.gbw) ****
             **** DENSITY Dexketoprofen\Dexketoprofen_PBE_def2-TZVP\Dexketoprofen_PBE_def2-TZVP.orcainp.scfp WAS UPDATED ****
----------------
ORBITAL ENERGIES
----------------

  NO   OCC          E(Eh)            E(eV) 
   0   2.0000     -18.802275      -511.6359 
   1   2.0000     -18.751275      -510.2481 
   2   2.0000     -18.743008      -510.0232 
   3   2.0000     -10.019535      -272.6454 
   4   2.0000      -9.975161      -271.4379 
   5   2.0000      -9.915311      -269.8093 
   6   2.0000      -9.914944      -269.7993 
   7   2.0000      -9.907938      -269.6087 
   8   2.0000      -9.905372      -269.5389 
   9   2.0000      -9.904499      -269.5151 
  10   2.0000      -9.899670      -269.3837 
  11   2.0000      -9.898731      -269.3582 
  12   2.0000      -9.898125      -269.3417 
  13   2.0000      -9.897962      -269.3372 
  14   2.0000      -9.896267      -269.2911 
  15   2.0000      -9.896009      -269.2841 
  16   2.0000      -9.894401      -269.2403 
  17   2.0000      -9.893606      -269.2187 
  18   2.0000      -9.876072      -268.7416 
  19   2.0000      -1.014873       -27.6161 
  20   2.0000      -0.957672       -26.0596 
  21   2.0000      -0.940223       -25.5848 
  22   2.0000      -0.799560       -21.7571 
  23   2.0000      -0.790751       -21.5174 
  24   2.0000      -0.740377       -20.1467 
  25   2.0000      -0.708918       -19.2906 
  26   2.0000      -0.687838       -18.7170 
  27   2.0000      -0.682853       -18.5814 
  28   2.0000      -0.671410       -18.2700 
  29   2.0000      -0.602094       -16.3838 
  30   2.0000      -0.596828       -16.2405 
  31   2.0000      -0.569998       -15.5104 
  32   2.0000      -0.561173       -15.2703 
  33   2.0000      -0.553604       -15.0643 
  34   2.0000      -0.540659       -14.7121 
  35   2.0000      -0.506693       -13.7878 
  36   2.0000      -0.483702       -13.1622 
  37   2.0000      -0.466993       -12.7075 
  38   2.0000      -0.452153       -12.3037 
  39   2.0000      -0.430328       -11.7098 
  40   2.0000      -0.422340       -11.4925 
  41   2.0000      -0.417372       -11.3573 
  42   2.0000      -0.414047       -11.2668 
  43   2.0000      -0.408670       -11.1205 
  44   2.0000      -0.397658       -10.8208 
  45   2.0000      -0.391776       -10.6608 
  46   2.0000      -0.383449       -10.4342 
  47   2.0000      -0.381761       -10.3883 
  48   2.0000      -0.377275       -10.2662 
  49   2.0000      -0.376117       -10.2347 
  50   2.0000      -0.362551        -9.8655 
  51   2.0000      -0.353531        -9.6201 
  52   2.0000      -0.338648        -9.2151 
  53   2.0000      -0.331187        -9.0121 
  54   2.0000      -0.326144        -8.8748 
  55   2.0000      -0.319191        -8.6856 
  56   2.0000      -0.316871        -8.6225 
  57   2.0000      -0.312191        -8.4951 
  58   2.0000      -0.305063        -8.3012 
  59   2.0000      -0.303933        -8.2704 
  60   2.0000      -0.291296        -7.9266 
  61   2.0000      -0.248088        -6.7508 
  62   2.0000      -0.245730        -6.6867 
  63   2.0000      -0.244970        -6.6660 
  64   2.0000      -0.240641        -6.5482 
  65   2.0000      -0.235747        -6.4150 
  66   2.0000      -0.216639        -5.8950 
  67   0.0000      -0.106905        -2.9090 
  68   0.0000      -0.061967        -1.6862 
  69   0.0000      -0.057593        -1.5672 
  70   0.0000      -0.049865        -1.3569 
  71   0.0000      -0.046749        -1.2721 
  72   0.0000      -0.001332        -0.0363 
  73   0.0000       0.007993         0.2175 
  74   0.0000       0.036225         0.9857 
  75   0.0000       0.040100         1.0912 
  76   0.0000       0.049376         1.3436 
  77   0.0000       0.055748         1.5170 
  78   0.0000       0.066152         1.8001 
  79   0.0000       0.069489         1.8909 
  80   0.0000       0.073595         2.0026 
  81   0.0000       0.082447         2.2435 
  82   0.0000       0.087329         2.3764 
  83   0.0000       0.090858         2.4724 
  84   0.0000       0.098055         2.6682 
  85   0.0000       0.103618         2.8196 
  86   0.0000       0.104623         2.8469 
  87   0.0000       0.109572         2.9816 
  88   0.0000       0.118631         3.2281 
  89   0.0000       0.121118         3.2958 
  90   0.0000       0.129934         3.5357 
  91   0.0000       0.136538         3.7154 
  92   0.0000       0.144527         3.9328 
  93   0.0000       0.156512         4.2589 
  94   0.0000       0.162005         4.4084 
  95   0.0000       0.163539         4.4501 
  96   0.0000       0.173762         4.7283 
  97   0.0000       0.179616         4.8876 
  98   0.0000       0.183133         4.9833 
  99   0.0000       0.188607         5.1322 
 100   0.0000       0.192271         5.2320 
 101   0.0000       0.194636         5.2963 
 102   0.0000       0.198964         5.4141 
 103   0.0000       0.203805         5.5458 
 104   0.0000       0.207668         5.6509 
 105   0.0000       0.211311         5.7501 
 106   0.0000       0.214045         5.8245 
 107   0.0000       0.217236         5.9113 
 108   0.0000       0.222629         6.0581 
 109   0.0000       0.225119         6.1258 
 110   0.0000       0.227017         6.1774 
 111   0.0000       0.230576         6.2743 
 112   0.0000       0.237760         6.4698 
 113   0.0000       0.243927         6.6376 
 114   0.0000       0.256136         6.9698 
 115   0.0000       0.260882         7.0989 
 116   0.0000       0.263547         7.1715 
 117   0.0000       0.265533         7.2255 
 118   0.0000       0.273194         7.4340 
 119   0.0000       0.279268         7.5993 
 120   0.0000       0.284576         7.7437 
 121   0.0000       0.288294         7.8449 
 122   0.0000       0.294716         8.0196 
 123   0.0000       0.295575         8.0430 
 124   0.0000       0.304445         8.2844 
 125   0.0000       0.308779         8.4023 
 126   0.0000       0.318287         8.6610 
 127   0.0000       0.322136         8.7658 
 128   0.0000       0.331465         9.0196 
 129   0.0000       0.331655         9.0248 
 130   0.0000       0.341621         9.2960 
 131   0.0000       0.343991         9.3605 
 132   0.0000       0.347727         9.4621 
 133   0.0000       0.353432         9.6174 
 134   0.0000       0.358298         9.7498 
 135   0.0000       0.364545         9.9198 
 136   0.0000       0.365577         9.9479 
 137   0.0000       0.368573        10.0294 
 138   0.0000       0.380239        10.3468 
 139   0.0000       0.380738        10.3604 
 140   0.0000       0.385607        10.4929 
 141   0.0000       0.390525        10.6267 
 142   0.0000       0.393894        10.7184 
 143   0.0000       0.397090        10.8054 
 144   0.0000       0.402302        10.9472 
 145   0.0000       0.406851        11.0710 
 146   0.0000       0.409623        11.1464 
 147   0.0000       0.419457        11.4140 
 148   0.0000       0.422087        11.4856 
 149   0.0000       0.430928        11.7261 
 150   0.0000       0.434709        11.8290 
 151   0.0000       0.437029        11.8922 
 152   0.0000       0.439720        11.9654 
 153   0.0000       0.449246        12.2246 
 154   0.0000       0.450121        12.2484 
 155   0.0000       0.452462        12.3121 
 156   0.0000       0.457018        12.4361 
 157   0.0000       0.465638        12.6706 
 158   0.0000       0.468829        12.7575 
 159   0.0000       0.472209        12.8495 
 160   0.0000       0.475214        12.9312 
 161   0.0000       0.484413        13.1815 
 162   0.0000       0.487832        13.2746 
 163   0.0000       0.498783        13.5726 
 164   0.0000       0.502175        13.6649 
 165   0.0000       0.510854        13.9010 
 166   0.0000       0.516532        14.0555 
 167   0.0000       0.529738        14.4149 
 168   0.0000       0.533722        14.5233 
 169   0.0000       0.552086        15.0230 
 170   0.0000       0.554473        15.0880 
 171   0.0000       0.570892        15.5347 
 172   0.0000       0.575615        15.6633 
 173   0.0000       0.582311        15.8455 
 174   0.0000       0.587130        15.9766 
 175   0.0000       0.590040        16.0558 
 176   0.0000       0.596077        16.2201 
 177   0.0000       0.606114        16.4932 
 178   0.0000       0.610401        16.6099 
 179   0.0000       0.617254        16.7963 
 180   0.0000       0.628322        17.0975 
 181   0.0000       0.630460        17.1557 
 182   0.0000       0.632748        17.2179 
 183   0.0000       0.637371        17.3437 
 184   0.0000       0.643904        17.5215 
 185   0.0000       0.650824        17.7098 
 186   0.0000       0.656124        17.8541 
 187   0.0000       0.666456        18.1352 
 188   0.0000       0.669522        18.2186 
 189   0.0000       0.673050        18.3146 
 190   0.0000       0.676208        18.4006 
 191   0.0000       0.693379        18.8678 
 192   0.0000       0.703218        19.1355 
 193   0.0000       0.707566        19.2539 
 194   0.0000       0.720631        19.6094 
 195   0.0000       0.731641        19.9090 
 196   0.0000       0.733317        19.9546 
 197   0.0000       0.741101        20.1664 
 198   0.0000       0.748690        20.3729 
 199   0.0000       0.756405        20.5828 
 200   0.0000       0.765970        20.8431 
 201   0.0000       0.767341        20.8804 
 202   0.0000       0.775553        21.1039 
 203   0.0000       0.779250        21.2045 
 204   0.0000       0.784147        21.3377 
 205   0.0000       0.796055        21.6618 
 206   0.0000       0.798405        21.7257 
 207   0.0000       0.808724        22.0065 
 208   0.0000       0.817836        22.2544 
 209   0.0000       0.823776        22.4161 
 210   0.0000       0.844543        22.9812 
 211   0.0000       0.846861        23.0443 
 212   0.0000       0.855925        23.2909 
 213   0.0000       0.860780        23.4230 
 214   0.0000       0.862470        23.4690 
 215   0.0000       0.877343        23.8737 
 216   0.0000       0.881704        23.9924 
 217   0.0000       0.890276        24.2256 
 218   0.0000       0.894766        24.3478 
 219   0.0000       0.904494        24.6125 
 220   0.0000       0.911856        24.8129 
 221   0.0000       0.934335        25.4246 
 222   0.0000       0.937427        25.5087 
 223   0.0000       0.941655        25.6237 
 224   0.0000       0.957771        26.0623 
 225   0.0000       0.964821        26.2541 
 226   0.0000       0.970996        26.4221 
 227   0.0000       0.979220        26.6459 
 228   0.0000       0.992152        26.9978 
 229   0.0000       0.995533        27.0898 
 230   0.0000       1.013701        27.5842 
 231   0.0000       1.021093        27.7854 
 232   0.0000       1.033151        28.1135 
 233   0.0000       1.039069        28.2745 
 234   0.0000       1.044716        28.4282 
 235   0.0000       1.059755        28.8374 
 236   0.0000       1.065873        29.0039 
 237   0.0000       1.083401        29.4808 
 238   0.0000       1.086841        29.5744 
 239   0.0000       1.097871        29.8746 
 240   0.0000       1.105169        30.0732 
 241   0.0000       1.121417        30.5153 
 242   0.0000       1.132799        30.8250 
 243   0.0000       1.146276        31.1917 
 244   0.0000       1.151602        31.3367 
 245   0.0000       1.159575        31.5537 
 246   0.0000       1.161691        31.6112 
 247   0.0000       1.168005        31.7830 
 248   0.0000       1.178192        32.0602 
 249   0.0000       1.188158        32.3314 
 250   0.0000       1.190207        32.3872 
 251   0.0000       1.191807        32.4307 
 252   0.0000       1.206659        32.8348 
 253   0.0000       1.213679        33.0259 
 254   0.0000       1.227060        33.3900 
 255   0.0000       1.231881        33.5212 
 256   0.0000       1.237885        33.6846 
 257   0.0000       1.239777        33.7360 
 258   0.0000       1.255213        34.1561 
 259   0.0000       1.260156        34.2906 
 260   0.0000       1.275523        34.7087 
 261   0.0000       1.277558        34.7641 
 262   0.0000       1.291366        35.1398 
 263   0.0000       1.309700        35.6387 
 264   0.0000       1.324363        36.0377 
 265   0.0000       1.328663        36.1548 
 266   0.0000       1.341844        36.5134 
 267   0.0000       1.351707        36.7818 
 268   0.0000       1.358208        36.9587 
 269   0.0000       1.358890        36.9773 
 270   0.0000       1.370754        37.3001 
 271   0.0000       1.382715        37.6256 
 272   0.0000       1.386916        37.7399 
 273   0.0000       1.390719        37.8434 
 274   0.0000       1.406759        38.2799 
 275   0.0000       1.407291        38.2943 
 276   0.0000       1.423723        38.7415 
 277   0.0000       1.436721        39.0952 
 278   0.0000       1.438414        39.1412 
 279   0.0000       1.449209        39.4350 
 280   0.0000       1.461608        39.7724 
 281   0.0000       1.462398        39.7939 
 282   0.0000       1.482993        40.3543 
 283   0.0000       1.495213        40.6868 
 284   0.0000       1.497528        40.7498 
 285   0.0000       1.504272        40.9333 
 286   0.0000       1.510984        41.1160 
 287   0.0000       1.516227        41.2586 
 288   0.0000       1.521142        41.3924 
 289   0.0000       1.529162        41.6106 
 290   0.0000       1.537309        41.8323 
 291   0.0000       1.539719        41.8979 
 292   0.0000       1.550792        42.1992 
 293   0.0000       1.559806        42.4445 
 294   0.0000       1.570623        42.7388 
 295   0.0000       1.580347        43.0034 
 296   0.0000       1.583947        43.1014 
 297   0.0000       1.584600        43.1192 
 298   0.0000       1.597381        43.4670 
 299   0.0000       1.602416        43.6040 
 300   0.0000       1.608103        43.7587 
 301   0.0000       1.626099        44.2484 
 302   0.0000       1.629364        44.3373 
 303   0.0000       1.633916        44.4611 
 304   0.0000       1.637995        44.5721 
 305   0.0000       1.643711        44.7277 
 306   0.0000       1.658182        45.1214 
 307   0.0000       1.668106        45.3915 
 308   0.0000       1.671944        45.4959 
 309   0.0000       1.686957        45.9044 
 310   0.0000       1.704447        46.3804 
 311   0.0000       1.710529        46.5459 
 312   0.0000       1.728015        47.0217 
 313   0.0000       1.729997        47.0756 
 314   0.0000       1.741886        47.3991 
 315   0.0000       1.754720        47.7484 
 316   0.0000       1.771263        48.1985 
 317   0.0000       1.776417        48.3388 
 318   0.0000       1.786442        48.6116 
 319   0.0000       1.799355        48.9629 
 320   0.0000       1.808006        49.1983 
 321   0.0000       1.821919        49.5769 
 322   0.0000       1.835880        49.9568 
 323   0.0000       1.841723        50.1158 
 324   0.0000       1.846889        50.2564 
 325   0.0000       1.857944        50.5572 
 326   0.0000       1.870515        50.8993 
 327   0.0000       1.894472        51.5512 
 328   0.0000       1.903125        51.7867 
 329   0.0000       1.905065        51.8395 
 330   0.0000       1.927995        52.4634 
 331   0.0000       1.945602        52.9425 
 332   0.0000       1.949680        53.0535 
 333   0.0000       1.960582        53.3501 
 334   0.0000       1.970650        53.6241 
 335   0.0000       1.974773        53.7363 
 336   0.0000       1.982634        53.9502 
 337   0.0000       1.990487        54.1639 
 338   0.0000       2.001078        54.4521 
 339   0.0000       2.004476        54.5446 
 340   0.0000       2.011081        54.7243 
 341   0.0000       2.026984        55.1570 
 342   0.0000       2.035076        55.3772 
 343   0.0000       2.048515        55.7429 
 344   0.0000       2.054498        55.9057 
 345   0.0000       2.072213        56.3878 
 346   0.0000       2.082728        56.6739 
 347   0.0000       2.087765        56.8110 
 348   0.0000       2.102582        57.2142 
 349   0.0000       2.111791        57.4647 
 350   0.0000       2.118665        57.6518 
 351   0.0000       2.132917        58.0396 
 352   0.0000       2.139152        58.2093 
 353   0.0000       2.148368        58.4601 
 354   0.0000       2.152839        58.5817 
 355   0.0000       2.161507        58.8176 
 356   0.0000       2.168462        59.0068 
 357   0.0000       2.175323        59.1935 
 358   0.0000       2.181043        59.3492 
 359   0.0000       2.195761        59.7497 
 360   0.0000       2.209019        60.1105 
 361   0.0000       2.227237        60.6062 
 362   0.0000       2.240361        60.9633 
 363   0.0000       2.248384        61.1816 
 364   0.0000       2.265227        61.6400 
 365   0.0000       2.284309        62.1592 
 366   0.0000       2.291994        62.3683 
 367   0.0000       2.299564        62.5743 
 368   0.0000       2.307192        62.7819 
 369   0.0000       2.335013        63.5389 
 370   0.0000       2.341697        63.7208 
 371   0.0000       2.350473        63.9596 
 372   0.0000       2.371947        64.5440 
 373   0.0000       2.377085        64.6838 
 374   0.0000       2.390883        65.0592 
 375   0.0000       2.401265        65.3417 
 376   0.0000       2.401974        65.3610 
 377   0.0000       2.426315        66.0234 
 378   0.0000       2.430313        66.1322 
 379   0.0000       2.438514        66.3553 
 380   0.0000       2.450757        66.6885 
 381   0.0000       2.463132        67.0252 
 382   0.0000       2.486810        67.6695 
 383   0.0000       2.490403        67.7673 
 384   0.0000       2.502887        68.1070 
 385   0.0000       2.508311        68.2546 
 386   0.0000       2.513744        68.4025 
 387   0.0000       2.518771        68.5393 
 388   0.0000       2.528418        68.8018 
 389   0.0000       2.535835        69.0036 
 390   0.0000       2.540928        69.1422 
 391   0.0000       2.554275        69.5053 
 392   0.0000       2.559785        69.6553 
 393   0.0000       2.568478        69.8918 
 394   0.0000       2.574925        70.0673 
 395   0.0000       2.578209        70.1566 
 396   0.0000       2.587634        70.4131 
 397   0.0000       2.593008        70.5593 
 398   0.0000       2.599282        70.7301 
 399   0.0000       2.609684        71.0131 
 400   0.0000       2.612507        71.0899 
 401   0.0000       2.621653        71.3388 
 402   0.0000       2.623556        71.3906 
 403   0.0000       2.641972        71.8917 
 404   0.0000       2.652638        72.1819 
 405   0.0000       2.660118        72.3855 
 406   0.0000       2.668197        72.6053 
 407   0.0000       2.675536        72.8050 
 408   0.0000       2.684214        73.0412 
 409   0.0000       2.690784        73.2200 
 410   0.0000       2.694825        73.3299 
 411   0.0000       2.701409        73.5091 
 412   0.0000       2.708716        73.7079 
 413   0.0000       2.711262        73.7772 
 414   0.0000       2.728849        74.2558 
 415   0.0000       2.729505        74.2736 
 416   0.0000       2.732494        74.3549 
 417   0.0000       2.744785        74.6894 
 418   0.0000       2.751069        74.8604 
 419   0.0000       2.758664        75.0671 
 420   0.0000       2.764967        75.2386 
 421   0.0000       2.766444        75.2788 
 422   0.0000       2.774405        75.4954 
 423   0.0000       2.781660        75.6928 
 424   0.0000       2.787658        75.8560 
 425   0.0000       2.795465        76.0685 
 426   0.0000       2.813715        76.5651 
 427   0.0000       2.813924        76.5708 
 428   0.0000       2.822420        76.8020 
 429   0.0000       2.829221        76.9870 
 430   0.0000       2.843055        77.3635 
 431   0.0000       2.851585        77.5956 
 432   0.0000       2.854381        77.6717 
 433   0.0000       2.888073        78.5885 
 434   0.0000       2.890146        78.6449 
 435   0.0000       2.900469        78.9258 
 436   0.0000       2.906920        79.1013 
 437   0.0000       2.923784        79.5602 
 438   0.0000       2.933919        79.8360 
 439   0.0000       2.944523        80.1245 
 440   0.0000       2.949546        80.2612 
 441   0.0000       2.954452        80.3947 
 442   0.0000       2.967856        80.7595 
 443   0.0000       2.974008        80.9269 
 444   0.0000       2.977007        81.0085 
 445   0.0000       2.985027        81.2267 
 446   0.0000       2.993342        81.4530 
 447   0.0000       2.998539        81.5944 
 448   0.0000       3.004220        81.7490 
 449   0.0000       3.023692        82.2788 
 450   0.0000       3.025026        82.3151 
 451   0.0000       3.032161        82.5093 
 452   0.0000       3.040376        82.7328 
 453   0.0000       3.047162        82.9175 
 454   0.0000       3.053894        83.1007 
 455   0.0000       3.058393        83.2231 
 456   0.0000       3.066420        83.4415 
 457   0.0000       3.072563        83.6087 
 458   0.0000       3.086874        83.9981 
 459   0.0000       3.095121        84.2225 
 460   0.0000       3.098967        84.3272 
 461   0.0000       3.103852        84.4601 
 462   0.0000       3.110097        84.6300 
 463   0.0000       3.118695        84.8640 
 464   0.0000       3.127383        85.1004 
 465   0.0000       3.135220        85.3137 
 466   0.0000       3.139611        85.4331 
 467   0.0000       3.142313        85.5067 
 468   0.0000       3.152403        85.7812 
 469   0.0000       3.161562        86.0305 
 470   0.0000       3.172915        86.3394 
 471   0.0000       3.182106        86.5895 
 472   0.0000       3.187336        86.7318 
 473   0.0000       3.191130        86.8351 
 474   0.0000       3.204073        87.1873 
 475   0.0000       3.206368        87.2497 
 476   0.0000       3.211597        87.3920 
 477   0.0000       3.219046        87.5947 
 478   0.0000       3.226932        87.8093 
 479   0.0000       3.228772        87.8594 
 480   0.0000       3.239020        88.1382 
 481   0.0000       3.254365        88.5558 
 482   0.0000       3.256507        88.6141 
 483   0.0000       3.263511        88.8047 
 484   0.0000       3.270710        89.0006 
 485   0.0000       3.278041        89.2000 
 486   0.0000       3.286294        89.4246 
 487   0.0000       3.288946        89.4968 
 488   0.0000       3.294255        89.6412 
 489   0.0000       3.304509        89.9203 
 490   0.0000       3.306861        89.9843 
 491   0.0000       3.316967        90.2593 
 492   0.0000       3.324389        90.4612 
 493   0.0000       3.341420        90.9247 
 494   0.0000       3.352991        91.2395 
 495   0.0000       3.362926        91.5099 
 496   0.0000       3.369681        91.6937 
 497   0.0000       3.372492        91.7702 
 498   0.0000       3.386521        92.1519 
 499   0.0000       3.393229        92.3344 
 500   0.0000       3.395054        92.3841 
 501   0.0000       3.406933        92.7074 
 502   0.0000       3.412216        92.8511 
 503   0.0000       3.419993        93.0627 
 504   0.0000       3.422545        93.1322 
 505   0.0000       3.429448        93.3200 
 506   0.0000       3.435954        93.4970 
 507   0.0000       3.443401        93.6997 
 508   0.0000       3.451293        93.9145 
 509   0.0000       3.457165        94.0742 
 510   0.0000       3.459291        94.1321 
 511   0.0000       3.464838        94.2830 
 512   0.0000       3.478464        94.6538 
 513   0.0000       3.490402        94.9787 
 514   0.0000       3.506064        95.4049 
 515   0.0000       3.516954        95.7012 
 516   0.0000       3.539960        96.3272 
 517   0.0000       3.542676        96.4011 
 518   0.0000       3.558241        96.8247 
 519   0.0000       3.571702        97.1909 
 520   0.0000       3.578817        97.3846 
 521   0.0000       3.590419        97.7003 
 522   0.0000       3.604606        98.0863 
 523   0.0000       3.612233        98.2939 
 524   0.0000       3.621385        98.5429 
 525   0.0000       3.632614        98.8485 
 526   0.0000       3.641646        99.0942 
 527   0.0000       3.672018        99.9207 
 528   0.0000       3.696229       100.5795 
 529   0.0000       3.700884       100.7062 
 530   0.0000       3.723008       101.3082 
 531   0.0000       3.734421       101.6188 
 532   0.0000       3.734979       101.6340 
 533   0.0000       3.766692       102.4969 
 534   0.0000       3.779019       102.8323 
 535   0.0000       3.791887       103.1825 
 536   0.0000       3.809458       103.6606 
 537   0.0000       3.832609       104.2906 
 538   0.0000       3.835029       104.3564 
 539   0.0000       3.863411       105.1288 
 540   0.0000       3.870736       105.3281 
 541   0.0000       3.885753       105.7367 
 542   0.0000       3.904474       106.2461 
 543   0.0000       3.911953       106.4497 
 544   0.0000       3.927882       106.8831 
 545   0.0000       3.943717       107.3140 
 546   0.0000       3.949890       107.4820 
 547   0.0000       3.977668       108.2378 
 548   0.0000       3.979472       108.2869 
 549   0.0000       4.011269       109.1522 
 550   0.0000       4.021757       109.4376 
[...]
  2 C s       :     2.834870  s :     2.834870
      pz      :     1.052702  p :     3.163479
      px      :     1.043965
      py      :     1.066811
      dz2     :     0.038464  d :     0.247905
      dxz     :     0.056529
      dyz     :     0.052262
      dx2y2   :     0.073595
      dxy     :     0.027056
      f0      :     0.002852  f :     0.023993
      f+1     :     0.003986
      f-1     :     0.003182
      f+2     :     0.004006
      f-2     :     0.002942
      f+3     :     0.003710
      f-3     :     0.003314
  3 C s       :     2.777006  s :     2.777006
      pz      :     0.896344  p :     2.650916
      px      :     0.848237
      py      :     0.906335
      dz2     :     0.141504  d :     0.909700
      dxz     :     0.180635
      dyz     :     0.176283
      dx2y2   :     0.228378
      dxy     :     0.182900
      f0      :     0.012654  f :     0.145203
      f+1     :     0.027642
      f-1     :     0.014418
      f+2     :     0.023726
      f-2     :     0.019675
      f+3     :     0.018160
      f-3     :     0.028929
  4 O s       :     3.344032  s :     3.344032
      pz      :     1.591838  p :     4.467328
      px      :     1.414323
      py      :     1.461168
      dz2     :     0.009281  d :     0.068545
      dxz     :     0.020959
      dyz     :     0.008303
      dx2y2   :     0.013347
      dxy     :     0.016654
      f0      :     0.000510  f :     0.004703
      f+1     :     0.000783
      f-1     :     0.000056
      f+2     :     0.001039
      f-2     :     0.000976
      f+3     :     0.000746
      f-3     :     0.000592
  5 O s       :     3.406462  s :     3.406462
      pz      :     1.508872  p :     4.439324
      px      :     1.495493
      py      :     1.434959
      dz2     :     0.007966  d :     0.064758
      dxz     :     0.007585
      dyz     :     0.013298
      dx2y2   :     0.015057
      dxy     :     0.020851
      f0      :     0.000611  f :     0.005974
      f+1     :     0.000486
      f-1     :     0.000703
      f+2     :     0.000339
      f-2     :     0.001135
      f+3     :     0.001410
      f-3     :     0.001289
  6 C s       :     2.713370  s :     2.713370
      pz      :     0.924797  p :     2.846738
      px      :     0.964760
      py      :     0.957181
      dz2     :     0.077401  d :     0.510596
      dxz     :     0.073268
      dyz     :     0.109417
      dx2y2   :     0.129295
      dxy     :     0.121215
      f0      :     0.005329  f :     0.055363
      f+1     :     0.005043
      f-1     :     0.007610
      f+2     :     0.007804
      f-2     :     0.009774
      f+3     :     0.010105
      f-3     :     0.009698
  7 C s       :     2.756975  s :     2.756975
      pz      :     0.932699  p :     2.883437
      px      :     0.947988
      py      :     1.002750
      dz2     :     0.057213  d :     0.373687
      dxz     :     0.045300
      dyz     :     0.085953
      dx2y2   :     0.072259
      dxy     :     0.112962
      f0      :     0.004959  f :     0.041167
      f+1     :     0.004485
      f-1     :     0.004572
      f+2     :     0.006710
      f-2     :     0.006303
      f+3     :     0.008081
      f-3     :     0.006058
  8 C s       :     2.713892  s :     2.713892
      pz      :     0.895976  p :     2.861806
      px      :     0.928995
      py      :     1.036836
      dz2     :     0.059085  d :     0.486158
      dxz     :     0.071427
      dyz     :     0.104459
      dx2y2   :     0.126660
      dxy     :     0.124526
      f0      :     0.004318  f :     0.053888
      f+1     :     0.004523
      f-1     :     0.008515
      f+2     :     0.007542
      f-2     :     0.008617
      f+3     :     0.009981
      f-3     :     0.010391
  9 C s       :     2.766497  s :     2.766497
      pz      :     0.933336  p :     2.904756
      px      :     0.977226
      py      :     0.994193
      dz2     :     0.064663  d :     0.376483
      dxz     :     0.063133
      dyz     :     0.065553
      dx2y2   :     0.105554
      dxy     :     0.077581
      f0      :     0.004139  f :     0.041853
      f+1     :     0.005042
      f-1     :     0.005003
      f+2     :     0.005853
      f-2     :     0.007928
      f+3     :     0.006283
      f-3     :     0.007604
 10 C s       :     2.772091  s :     2.772091
      pz      :     0.944508  p :     2.937601
      px      :     0.968707
      py      :     1.024386
      dz2     :     0.053761  d :     0.377553
      dxz     :     0.044837
      dyz     :     0.090030
      dx2y2   :     0.073375
      dxy     :     0.115551
      f0      :     0.004842  f :     0.041936
      f+1     :     0.004557
      f-1     :     0.004476
      f+2     :     0.006824
      f-2     :     0.006564
      f+3     :     0.008332
      f-3     :     0.006341
 11 C s       :     2.768457  s :     2.768457
      pz      :     0.917281  p :     2.905867
      px      :     0.941557
      py      :     1.047029
      dz2     :     0.036299  d :     0.377439
      dxz     :     0.049963
      dyz     :     0.086016
      dx2y2   :     0.106854
      dxy     :     0.098306
      f0      :     0.003173  f :     0.041311
      f+1     :     0.002165
      f-1     :     0.007568
      f+2     :     0.005382
      f-2     :     0.006389
      f+3     :     0.008284
      f-3     :     0.008350
 12 C s       :     2.749222  s :     2.749222
      pz      :     0.877314  p :     2.662667
      px      :     0.863385
      py      :     0.921968
      dz2     :     0.109212  d :     0.732754
      dxz     :     0.090299
      dyz     :     0.185542
      dx2y2   :     0.176145
      dxy     :     0.171556
      f0      :     0.014177  f :     0.103301
      f+1     :     0.010325
      f-1     :     0.009993
      f+2     :     0.013872
      f-2     :     0.015110
      f+3     :     0.015603
      f-3     :     0.024219
 13 O s       :     3.408150  s :     3.408150
      pz      :     1.514370  p :     4.424563
      px      :     1.453538
      py      :     1.456655
      dz2     :     0.007773  d :     0.065759
      dxz     :     0.004063
      dyz     :     0.015559
      dx2y2   :     0.017688
      dxy     :     0.020676
      f0      :     0.000629  f :     0.005644
      f+1     :     0.000291
      f-1     :     0.000768
      f+2     :     0.000447
      f-2     :     0.000698
      f+3     :     0.001478
      f-3     :     0.001333
 14 C s       :     2.715021  s :     2.715021
      pz      :     0.915803  p :     2.868744
      px      :     1.027726
      py      :     0.925215
      dz2     :     0.074489  d :     0.484673
      dxz     :     0.112091
      dyz     :     0.074483
      dx2y2   :     0.111384
      dxy     :     0.112225
      f0      :     0.004559  f :     0.053659
      f+1     :     0.009425
      f-1     :     0.005995
      f+2     :     0.009207
      f-2     :     0.007429
      f+3     :     0.006222
      f-3     :     0.010823
 15 C s       :     2.767524  s :     2.767524
      pz      :     0.958351  p :     2.905488
      px      :     1.009795
      py      :     0.937341
      dz2     :     0.063879  d :     0.376786
      dxz     :     0.105648
      dyz     :     0.049003
      dx2y2   :     0.063561
      dxy     :     0.094695
      f0      :     0.005694  f :     0.041648
      f+1     :     0.005816
      f-1     :     0.004629
      f+2     :     0.007519
      f-2     :     0.005653
      f+3     :     0.004737
      f-3     :     0.007600
 16 C s       :     2.773573  s :     2.773573
      pz      :     0.979467  p :     2.943078
      px      :     0.992979
      py      :     0.970631
      dz2     :     0.077568  d :     0.377010
      dxz     :     0.075008
      dyz     :     0.069904
      dx2y2   :     0.098612
      dxy     :     0.055918
      f0      :     0.004770  f :     0.041815
      f+1     :     0.006111
      f-1     :     0.005881
      f+2     :     0.007047
      f-2     :     0.006861
      f+3     :     0.005536
      f-3     :     0.005609
 17 C s       :     2.776410  s :     2.776410
      pz      :     0.938590  p :     2.927124
      px      :     1.053669
      py      :     0.934865
      dz2     :     0.051078  d :     0.379797
      dxz     :     0.091636
      dyz     :     0.050058
      dx2y2   :     0.091056
      dxy     :     0.095967
      f0      :     0.002855  f :     0.041702
      f+1     :     0.008025
      f-1     :     0.003691
      f+2     :     0.006897
      f-2     :     0.005498
      f+3     :     0.005760
      f-3     :     0.008975
 18 C s       :     2.773722  s :     2.773722
      pz      :     0.974025  p :     2.944110
      px      :     1.029654
      py      :     0.940431
      dz2     :     0.062807  d :     0.376841
      dxz     :     0.109541
      dyz     :     0.046678
      dx2y2   :     0.062065
      dxy     :     0.095750
      f0      :     0.005877  f :     0.041776
      f+1     :     0.005940
      f-1     :     0.004700
      f+2     :     0.007504
      f-2     :     0.005520
      f+3     :     0.004677
      f-3     :     0.007559
 19 C s       :     2.767675  s :     2.767675
      pz      :     0.973655  p :     2.907651
      px      :     0.990595
      py      :     0.943402
      dz2     :     0.081162  d :     0.377666
      dxz     :     0.076480
      dyz     :     0.067165
      dx2y2   :     0.098571
      dxy     :     0.054288
      f0      :     0.004859  f :     0.041445
      f+1     :     0.006338
      f-1     :     0.005806
      f+2     :     0.006856
      f-2     :     0.006739
      f+3     :     0.005485
      f-3     :     0.005362
 20 H s       :     0.805865  s :     0.805865
      pz      :     0.014842  p :     0.061465
      px      :     0.013465
      py      :     0.033159
 21 H s       :     0.804393  s :     0.804393
      pz      :     0.027138  p :     0.061294
      px      :     0.013082
      py      :     0.021074
 22 H s       :     0.806193  s :     0.806193
      pz      :     0.019774  p :     0.061667
      px      :     0.028743
      py      :     0.013150
 23 H s       :     0.635902  s :     0.635902
      pz      :     0.042604  p :     0.146033
      px      :     0.037485
      py      :     0.065943
 24 H s       :     0.769676  s :     0.769676
      pz      :     0.015859  p :     0.060955
      px      :     0.020916
      py      :     0.024180
 25 H s       :     0.781182  s :     0.781182
      pz      :     0.013687  p :     0.060149
      px      :     0.012677
      py      :     0.033785
 26 H s       :     0.783534  s :     0.783534
      pz      :     0.015293  p :     0.059017
      px      :     0.020026
      py      :     0.023698
 27 H s       :     0.779484  s :     0.779484
      pz      :     0.022423  p :     0.059203
      px      :     0.024988
      py      :     0.011792
 28 H s       :     0.781957  s :     0.781957
      pz      :     0.017126  p :     0.060079
      px      :     0.020768
      py      :     0.022184
 29 H s       :     0.785284  s :     0.785284
      pz      :     0.013571  p :     0.058997
      px      :     0.033590
      py      :     0.011836
 30 H s       :     0.785283  s :     0.785283
      pz      :     0.025518  p :     0.058948
      px      :     0.013239
      py      :     0.020191
 31 H s       :     0.784870  s :     0.784870
      pz      :     0.017042  p :     0.059103
      px      :     0.021332
      py      :     0.020730
 32 H s       :     0.776671  s :     0.776671
      pz      :     0.013952  p :     0.060535
      px      :     0.034688
      py      :     0.011895


                      *****************************
                      * MAYER POPULATION ANALYSIS *
                      *****************************

  NA   - Mulliken gross atomic population
  ZA   - Total nuclear charge
  QA   - Mulliken gross atomic charge
  VA   - Mayer's total valence
  BVA  - Mayer's bonded valence
  FA   - Mayer's free valence

  ATOM       NA         ZA         QA         VA         BVA        FA
  0 H      0.8589     1.0000     0.1411     0.9684     0.9684    -0.0000
  1 C      6.0353     6.0000    -0.0353     3.6959     3.6959     0.0000
  2 C      6.4181     6.0000    -0.4181     3.9562     3.9562    -0.0000
  3 C      5.7746     6.0000     0.2254     4.4307     4.4307     0.0000
  4 O      8.3226     8.0000    -0.3226     2.1557     2.1557     0.0000
  5 O      8.3289     8.0000    -0.3289     2.1968     2.1968    -0.0000
  6 C      5.8796     6.0000     0.1204     3.7276     3.7276    -0.0000
  7 C      6.3652     6.0000    -0.3652     3.9173     3.9173     0.0000
  8 C      5.7636     6.0000     0.2364     3.4373     3.4373     0.0000
  9 C      6.2183     6.0000    -0.2183     3.9530     3.9530     0.0000
 10 C      6.1194     6.0000    -0.1194     3.8733     3.8733    -0.0000
 11 C      6.1697     6.0000    -0.1697     3.9085     3.9085     0.0000
 12 C      5.8440     6.0000     0.1560     4.0442     4.0442     0.0000
 13 O      8.3414     8.0000    -0.3414     2.1625     2.1625     0.0000
 14 C      5.8218     6.0000     0.1782     3.4819     3.4819    -0.0000
 15 C      6.2096     6.0000    -0.2096     3.9569     3.9569    -0.0000
 16 C      6.1279     6.0000    -0.1279     3.8901     3.8901     0.0000
 17 C      6.1183     6.0000    -0.1183     3.8989     3.8989    -0.0000
 18 C      6.1306     6.0000    -0.1306     3.8828     3.8828    -0.0000
 19 C      6.2315     6.0000    -0.2315     3.9485     3.9485    -0.0000
 20 H      0.8601     1.0000     0.1399     0.9712     0.9712     0.0000
 21 H      0.8616     1.0000     0.1384     0.9712     0.9712     0.0000
 22 H      0.8627     1.0000     0.1373     0.9773     0.9773    -0.0000
 23 H      0.6369     1.0000     0.3631     0.8871     0.8871     0.0000
 24 H      0.8366     1.0000     0.1634     0.9703     0.9703    -0.0000
 25 H      0.8646     1.0000     0.1354     0.9885     0.9885     0.0000
 26 H      0.8571     1.0000     0.1429     0.9618     0.9618    -0.0000
 27 H      0.8616     1.0000     0.1384     0.9691     0.9691    -0.0000
 28 H      0.8669     1.0000     0.1331     0.9910     0.9910     0.0000
 29 H      0.8576     1.0000     0.1424     0.9618     0.9618     0.0000
 30 H      0.8552     1.0000     0.1448     0.9599     0.9599    -0.0000
 31 H      0.8566     1.0000     0.1434     0.9611     0.9611     0.0000
 32 H      0.8433     1.0000     0.1567     0.9631     0.9631    -0.0000

  Mayer bond orders larger than 0.100000
B(  0-H ,  1-C ) :   0.9091 B(  1-C ,  2-C ) :   0.9813 B(  1-C ,  3-C ) :   0.9682 
B(  1-C ,  6-C ) :   0.9044 B(  2-C , 20-H ) :   0.9593 B(  2-C , 21-H ) :   0.9586 
B(  2-C , 22-H ) :   0.9609 B(  3-C ,  4-O ) :   1.2532 B(  3-C ,  5-O ) :   2.0994 
B(  4-O , 23-H ) :   0.8388 B(  6-C ,  7-C ) :   1.3090 B(  6-C , 11-C ) :   1.3413 
B(  7-C ,  8-C ) :   1.3266 B(  7-C , 24-H ) :   0.9698 B(  8-C ,  9-C ) :   1.2816 
B(  8-C , 12-C ) :   0.9373 B(  8-C , 13-O ) :  -0.1006 B(  9-C , 10-C ) :   1.4145 
B(  9-C , 25-H ) :   0.9715 B( 10-C , 11-C ) :   1.3650 B( 10-C , 26-H ) :   0.9729 
B( 11-C , 27-H ) :   0.9669 B( 12-C , 13-O ) :   2.0335 B( 12-C , 14-C ) :   0.9686 
B( 14-C , 15-C ) :   1.3010 B( 14-C , 19-C ) :   1.3082 B( 15-C , 16-C ) :   1.4266 
B( 15-C , 28-H ) :   0.9697 B( 16-C , 17-C ) :   1.3681 B( 16-C , 29-H ) :   0.9679 
B( 17-C , 18-C ) :   1.3841 B( 17-C , 30-H ) :   0.9614 B( 18-C , 19-C ) :   1.4014 
B( 18-C , 31-H ) :   0.9662 B( 19-C , 32-H ) :   0.9628 

-------
TIMINGS
-------

Total SCF time: 0 days 0 hours 0 min 42 sec 

Total time                  ....      42.463 sec
Sum of individual times     ....      41.849 sec  ( 98.6%)

Fock matrix formation       ....      40.055 sec  ( 94.3%)
  Split-RI-J                ....      10.282 sec  ( 25.7% of F)
  XC integration            ....      13.821 sec  ( 34.5% of F)
    Basis function eval.    ....       3.757 sec  ( 27.2% of XC)
    Density eval.           ....       5.570 sec  ( 40.3% of XC)
    XC-Functional eval.     ....       0.229 sec  (  1.7% of XC)
    XC-Potential eval.      ....       3.605 sec  ( 26.1% of XC)
Diagonalization             ....       0.053 sec  (  0.1%)
Density matrix formation    ....       0.030 sec  (  0.1%)
Population analysis         ....       0.055 sec  (  0.1%)
Initial guess               ....       0.057 sec  (  0.1%)
Orbital Transformation      ....       0.000 sec  (  0.0%)
Orbital Orthonormalization  ....       0.044 sec  (  0.1%)
DIIS solution               ....       0.021 sec  (  0.0%)
SOSCF solution              ....       0.259 sec  (  0.6%)
Grid generation             ....       1.319 sec  (  3.1%)

Maximum memory used throughout the entire SCF-calculation: 423.0 MB

-------------------------   --------------------
FINAL SINGLE POINT ENERGY      -843.138385901343
-------------------------   --------------------

                                *** OPTIMIZATION RUN DONE ***

                            ***************************************
                            *     ORCA property calculations      *
                            ***************************************

                                    ---------------------
                                    Active property flags
                                    ---------------------
   (+) Dipole Moment


------------------------------------------------------------------------------
                       ORCA ELECTRIC PROPERTIES CALCULATION
------------------------------------------------------------------------------

Dipole Moment Calculation                       ... on
Quadrupole Moment Calculation                   ... off
Polarizability Calculation                      ... off
GBWName                                         ... Dexketoprofen\Dexketoprofen_PBE_def2-TZVP\Dexketoprofen_PBE_def2-TZVP.orcainp.gbw
Electron density                                ... Dexketoprofen\Dexketoprofen_PBE_def2-TZVP\Dexketoprofen_PBE_def2-TZVP.orcainp.scfp
The origin for moment calculation is the CENTER OF MASS  = ( 7.182647,  2.827344 -4.039138)

-------------
DIPOLE MOMENT
-------------
                                X             Y             Z
Electronic contribution:     -0.78567       3.71932      -3.85073
Nuclear contribution   :     -0.76362      -3.60781       4.71518
                        -----------------------------------------
Total Dipole Moment    :     -1.54929       0.11151       0.86445
                        -----------------------------------------
Magnitude (a.u.)       :      1.77764
Magnitude (Debye)      :      4.51839



--------------------
Rotational spectrum 
--------------------
 
Rotational constants in cm-1:     0.017033     0.009072     0.006784 
Rotational constants in MHz :   510.626680   271.957840   203.370912 

 Dipole components along the rotational axes: 
x,y,z [a.u.] :    -1.562822    -0.507821     0.678010 
x,y,z [Debye]:    -3.972377    -1.290780     1.723365 

 

Timings for individual modules:

Sum of individual times         ...     2088.634 sec (=  34.811 min)
GTO integral calculation        ...       11.794 sec (=   0.197 min)   0.6 %
SCF iterations                  ...     1550.125 sec (=  25.835 min)  74.2 %
SCF Gradient evaluation         ...      525.364 sec (=   8.756 min)  25.2 %
Geometry relaxation             ...        1.351 sec (=   0.023 min)   0.1 %
                             ****ORCA TERMINATED NORMALLY****
TOTAL RUN TIME: 0 days 0 hours 34 minutes 50 seconds 538 msec
