
                                 *****************
                                 * O   R   C   A *
                                 *****************

                                            #,                                       
                                            ###                                      
                                            ####                                     
                                            #####                                    
                                            ######                                   
                                           ########,                                 
                                     ,,################,,,,,                         
                               ,,#################################,,                 
                          ,,##########################################,,             
                       ,#########################################, ''#####,          
                    ,#############################################,,   '####,        
                  ,##################################################,,,,####,       
                ,###########''''           ''''###############################       
              ,#####''   ,,,,##########,,,,          '''####'''          '####       
            ,##' ,,,,###########################,,,                        '##       
           ' ,,###''''                  '''############,,,                           
         ,,##''                                '''############,,,,        ,,,,,,###''
      ,#''                                            '''#######################'''  
     '                                                          ''''####''''         
             ,#######,   #######,   ,#######,      ##                                
            ,#'     '#,  ##    ##  ,#'     '#,    #''#        ######   ,####,        
            ##       ##  ##   ,#'  ##            #'  '#       #        #'  '#        
            ##       ##  #######   ##           ,######,      #####,   #    #        
            '#,     ,#'  ##    ##  '#,     ,#' ,#      #,         ##   #,  ,#        
             '#######'   ##     ##  '#######'  #'      '#     #####' # '####'        



                  #######################################################
                  #                        -***-                        #
                  #          Department of theory and spectroscopy      #
                  #    Directorship and core code : Frank Neese         #
                  #        Max Planck Institute fuer Kohlenforschung    #
                  #                Kaiser Wilhelm Platz 1               #
                  #                 D-45470 Muelheim/Ruhr               #
                  #                      Germany                        #
                  #                                                     #
                  #                  All rights reserved                #
                  #                        -***-                        #
                  #######################################################



                         Program Version 5.0.4 -  RELEASE  -

 With contributions from (in alphabetic order):
   Daniel Aravena         : Magnetic Suceptibility
   Michael Atanasov       : Ab Initio Ligand Field Theory (pilot matlab implementation)
   Alexander A. Auer      : GIAO ZORA, VPT2 properties, NMR spectrum
   Ute Becker             : Parallelization
   Giovanni Bistoni       : ED, misc. LED, open-shell LED, HFLD
   Martin Brehm           : Molecular dynamics
   Dmytro Bykov           : SCF Hessian
   Vijay G. Chilkuri      : MRCI spin determinant printing, contributions to CSF-ICE
   Dipayan Datta          : RHF DLPNO-CCSD density
   Achintya Kumar Dutta   : EOM-CC, STEOM-CC
   Dmitry Ganyushin       : Spin-Orbit,Spin-Spin,Magnetic field MRCI
   Miquel Garcia          : C-PCM and meta-GGA Hessian, CC/C-PCM, Gaussian charge scheme
   Yang Guo               : DLPNO-NEVPT2, F12-NEVPT2, CIM, IAO-localization
   Andreas Hansen         : Spin unrestricted coupled pair/coupled cluster methods
   Benjamin Helmich-Paris : MC-RPA, TRAH-SCF, COSX integrals
   Lee Huntington         : MR-EOM, pCC
   Robert Izsak           : Overlap fitted RIJCOSX, COSX-SCS-MP3, EOM
   Marcus Kettner         : VPT2
   Christian Kollmar      : KDIIS, OOCD, Brueckner-CCSD(T), CCSD density, CASPT2, CASPT2-K
   Simone Kossmann        : Meta GGA functionals, TD-DFT gradient, OOMP2, MP2 Hessian
   Martin Krupicka        : Initial AUTO-CI
   Lucas Lang             : DCDCAS
   Marvin Lechner         : AUTO-CI (C++ implementation), FIC-MRCC
   Dagmar Lenk            : GEPOL surface, SMD
   Dimitrios Liakos       : Extrapolation schemes; Compound Job, initial MDCI parallelization
   Dimitrios Manganas     : Further ROCIS development; embedding schemes
   Dimitrios Pantazis     : SARC Basis sets
   Anastasios Papadopoulos: AUTO-CI, single reference methods and gradients
   Taras Petrenko         : DFT Hessian,TD-DFT gradient, ASA, ECA, R-Raman, ABS, FL, XAS/XES, NRVS
   Peter Pinski           : DLPNO-MP2, DLPNO-MP2 Gradient
   Christoph Reimann      : Effective Core Potentials
   Marius Retegan         : Local ZFS, SOC
   Christoph Riplinger    : Optimizer, TS searches, QM/MM, DLPNO-CCSD(T), (RO)-DLPNO pert. Triples
   Tobias Risthaus        : Range-separated hybrids, TD-DFT gradient, RPA, STAB
   Michael Roemelt        : Original ROCIS implementation
   Masaaki Saitow         : Open-shell DLPNO-CCSD energy and density
   Barbara Sandhoefer     : DKH picture change effects
   Avijit Sen             : IP-ROCIS
   Kantharuban Sivalingam : CASSCF convergence, NEVPT2, FIC-MRCI
   Bernardo de Souza      : ESD, SOC TD-DFT
   Georgi Stoychev        : AutoAux, RI-MP2 NMR, DLPNO-MP2 response
   Willem Van den Heuvel  : Paramagnetic NMR
   Boris Wezisla          : Elementary symmetry handling
   Frank Wennmohs         : Technical directorship


 We gratefully acknowledge several colleagues who have allowed us to
 interface, adapt or use parts of their codes:
   Stefan Grimme, W. Hujo, H. Kruse, P. Pracht,  : VdW corrections, initial TS optimization,
                  C. Bannwarth, S. Ehlert          DFT functionals, gCP, sTDA/sTD-DF
   Ed Valeev, F. Pavosevic, A. Kumar             : LibInt (2-el integral package), F12 methods
   Garnet Chan, S. Sharma, J. Yang, R. Olivares  : DMRG
   Ulf Ekstrom                                   : XCFun DFT Library
   Mihaly Kallay                                 : mrcc  (arbitrary order and MRCC methods)
   Jiri Pittner, Ondrej Demel                    : Mk-CCSD
   Frank Weinhold                                : gennbo (NPA and NBO analysis)
   Christopher J. Cramer and Donald G. Truhlar   : smd solvation model
   Lars Goerigk                                  : TD-DFT with DH, B97 family of functionals
   V. Asgeirsson, H. Jonsson                     : NEB implementation
   FAccTs GmbH                                   : IRC, NEB, NEB-TS, DLPNO-Multilevel, CI-OPT
                                                   MM, QMMM, 2- and 3-layer-ONIOM, Crystal-QMMM,
                                                   LR-CPCM, SF, NACMEs, symmetry and pop. for TD-DFT,
                                                   nearIR, NL-DFT gradient (VV10), updates on ESD,
                                                   ML-optimized integration grids
   S Lehtola, MJT Oliveira, MAL Marques          : LibXC Library
   Liviu Ungur et al                             : ANISO software


 Your calculation uses the libint2 library for the computation of 2-el integrals
 For citations please refer to: http://libint.valeyev.net

 Your ORCA version has been built with support for libXC version: 5.1.0
 For citations please refer to: https://tddft.org/programs/libxc/

 This ORCA versions uses:
   CBLAS   interface :  Fast vector & matrix operations
   LAPACKE interface :  Fast linear algebra routines
   Shared memory     :  Shared parallel matrices


================================================================================

----- Orbital basis set information -----
Your calculation utilizes the basis: STO-3G
   H-Ne       : W. J. Hehre, R. F. Stewart and J. A. Pople, J. Chem. Phys. 2657 (1969).
   Na-Ar      : W. J. Hehre, R. Ditchfield, R. F. Stewart and J. A. Pople, J. Chem. Phys. 2769 (1970).
   K,Ca,Ga-Kr : W. J. Pietro, B. A. Levy, W. J. Hehre and R. F. Stewart, J. Am. Chem. Soc. 19, 2225 (1980).
   Sc-Zn,Y-Cd : W. J. Pietro and W. J. Hehre, J. Comp. Chem. 4, 241 (1983).

----- AuxJ basis set information -----
Your calculation utilizes the auxiliary basis: def2/J
   F. Weigend, Phys. Chem. Chem. Phys. 8, 1057 (2006).

================================================================================
                                        WARNINGS
                       Please study these warnings very carefully!
================================================================================


WARNING: Geometry Optimization
  ===> : Switching off AutoStart
         For restart on a previous wavefunction, please use MOREAD

INFO   : the flag for use of the SHARK integral package has been found!

================================================================================
                                       INPUT FILE
================================================================================
NAME = Dexketoprofen\Dexketoprofen_TPSS_STO-3G\Dexketoprofen_TPSS_STO-3G.orcainp
|  1> # ORCA input file
|  2> # 
|  3> !TPSS STO-3G Opt CPCM(WATER)
|  4> 
|  5> * xyz 0 1
|  6>    H        1.20129        -0.16932         0.23897
|  7>    C        2.26794        -0.11673        -0.02274
|  8>    C        3.06219        -0.56629         1.20342
|  9>    C        2.43159        -1.11202        -1.17182
| 10>    O        1.77888        -0.74114        -2.30430
| 11>    O        3.04791        -2.16647        -1.10611
| 12>    C        2.60248         1.32807        -0.37484
| 13>    C        3.66812         1.67324        -1.22306
| 14>    C        3.89277         3.01366        -1.58287
| 15>    C        3.12282         4.02608        -1.00191
| 16>    C        2.10481         3.69973        -0.10959
| 17>    C        1.83730         2.36158         0.18969
| 18>    C        4.92807         3.41042        -2.58203
| 19>    O        5.48927         4.49875        -2.46391
| 20>    C        5.27589         2.52516        -3.72903
| 21>    C        6.55331         2.62100        -4.29124
| 22>    C        6.92612         1.76780        -5.33332
| 23>    C        6.02518         0.81856        -5.81378
| 24>    C        4.73811         0.74719        -5.28495
| 25>    C        4.35571         1.61422        -4.26425
| 26>    H        2.74302        -1.56412         1.52440
| 27>    H        2.91450         0.11804         2.04595
| 28>    H        4.13600        -0.61445         0.99043
| 29>    H        1.29481         0.09946        -2.22163
| 30>    H        4.31939         0.89273        -1.61410
| 31>    H        3.31457         5.06879        -1.24530
| 32>    H        1.51553         4.48948         0.35131
| 33>    H        1.03152         2.13485         0.88711
| 34>    H        7.26495         3.35624        -3.91738
| 35>    H        7.92251         1.83890        -5.76326
| 36>    H        6.32312         0.13898        -6.60964
| 37>    H        4.03290         0.01141        -5.66607
| 38>    H        3.33494         1.55906        -3.89816
| 39> *
| 40> 
| 41>                          ****END OF INPUT****
================================================================================

                       *****************************
                       * Geometry Optimization Run *
                       *****************************

Geometry optimization settings:
Update method            Update   .... BFGS
Choice of coordinates    CoordSys .... Z-matrix Internals
Initial Hessian          InHess   .... Almoef's Model

Convergence Tolerances:
Energy Change            TolE     ....  5.0000e-06 Eh
Max. Gradient            TolMAXG  ....  3.0000e-04 Eh/bohr
RMS Gradient             TolRMSG  ....  1.0000e-04 Eh/bohr
Max. Displacement        TolMAXD  ....  4.0000e-03 bohr
RMS Displacement         TolRMSD  ....  2.0000e-03 bohr
Strict Convergence                ....  False
------------------------------------------------------------------------------
                        ORCA OPTIMIZATION COORDINATE SETUP
------------------------------------------------------------------------------

The optimization will be done in new redundant internal coordinates
Making redundant internal coordinates   ...  (new redundants) done
Evaluating the initial hessian          ...  (Almloef) done
Evaluating the coordinates              ...  done
Calculating the B-matrix                .... done
Calculating the G-matrix                .... done
Diagonalizing the G-matrix              .... done
Small eigenvalue found = 7.577e-03
Small eigenvalue found = 1.741e-02
Small eigenvalue found = 2.497e-02
The first mode is                       ....   76
The number of degrees of freedom        ....   93

    -----------------------------------------------------------------
                    Redundant Internal Coordinates


    -----------------------------------------------------------------
         Definition                    Initial Value    Approx d2E/dq
    -----------------------------------------------------------------
      1. B(C   1,H   0)                  1.0995         0.347691   
      2. B(C   2,C   1)                  1.5285         0.375597   
      3. B(C   3,C   1)                  1.5290         0.374982   
      4. B(O   4,C   3)                  1.3587         0.627764   
      5. B(O   5,C   3)                  1.2231         1.033035   
      6. B(C   6,C   1)                  1.5243         0.381550   
      7. B(C   7,C   6)                  1.4051         0.591157   
      8. B(C   8,C   7)                  1.4059         0.589269   
      9. B(C   9,C   8)                  1.3983         0.605962   
     10. B(C  10,C   9)                  1.3925         0.619062   
     11. B(C  11,C  10)                  1.3971         0.608801   
     12. B(C  11,C   6)                  1.4044         0.592605   
     13. B(C  12,C   8)                  1.4925         0.428737   
     14. B(O  13,C  12)                  1.2302         1.006577   
     15. B(C  14,C  12)                  1.4901         0.432616   
     16. B(C  15,C  14)                  1.3990         0.604583   
     17. B(C  16,C  15)                  1.3975         0.607927   
     18. B(C  17,C  16)                  1.3941         0.615394   
     19. B(C  18,C  17)                  1.3933         0.617252   
     20. B(C  19,C  18)                  1.3928         0.618478   
     21. B(C  19,C  14)                  1.4011         0.599893   
     22. B(H  20,C   2)                  1.0957         0.352636   
     23. B(H  21,C   2)                  1.0954         0.352982   
     24. B(H  22,C   2)                  1.0958         0.352524   
     25. B(H  23,O   4)                  0.9735         0.494739   
     26. B(H  24,C   7)                  1.0892         0.361218   
     27. B(H  25,C   9)                  1.0878         0.363058   
     28. B(H  26,C  10)                  1.0878         0.362976   
     29. B(H  27,C  11)                  1.0895         0.360718   
     30. B(H  28,C  15)                  1.0894         0.360902   
     31. B(H  29,C  16)                  1.0875         0.363398   
     32. B(H  30,C  17)                  1.0881         0.362605   
     33. B(H  31,H  23)                  4.4010         0.000000   
     34. B(H  31,C  18)                  1.0881         0.362632   
     35. B(H  32,C  19)                  1.0858         0.365653   
     36. A(C   2,C   1,C   3)          110.8425         0.363921   
     37. A(C   3,C   1,C   6)          114.8299         0.364901   
     38. A(H   0,C   1,C   2)          107.4018         0.322744   
     39. A(H   0,C   1,C   3)          104.5707         0.322657   
     40. A(H   0,C   1,C   6)          108.2540         0.323577   
     41. A(C   2,C   1,C   6)          110.4898         0.365003   
     42. A(C   1,C   2,H  21)          111.2962         0.323544   
     43. A(H  20,C   2,H  22)          107.5998         0.288920   
     44. A(C   1,C   2,H  20)          110.5776         0.323492   
     45. A(H  20,C   2,H  21)          107.7175         0.288979   
     46. A(H  21,C   2,H  22)          108.0033         0.288965   
     47. A(C   1,C   2,H  22)          111.4814         0.323475   
     48. A(O   4,C   3,O   5)          121.4775         0.471061   
     49. A(C   1,C   3,O   5)          125.0815         0.431823   
     50. A(C   1,C   3,O   4)          113.4094         0.395273   
     51. A(C   3,O   4,H  23)          113.8146         0.367755   
     52. A(C   7,C   6,C  11)          118.3663         0.426892   
     53. A(C   1,C   6,C  11)          119.0199         0.395012   
     54. A(C   1,C   6,C   7)          122.5997         0.394843   
     55. A(C   8,C   7,H  24)          119.7222         0.350073   
     56. A(C   6,C   7,C   8)          120.6570         0.426460   
     57. A(C   6,C   7,H  24)          119.6173         0.350262   
     58. A(C   7,C   8,C   9)          119.7339         0.428355   
     59. A(C   9,C   8,C  12)          117.8793         0.404785   
     60. A(C   7,C   8,C  12)          122.3854         0.402795   
     61. A(C   8,C   9,C  10)          119.9396         0.432164   
     62. A(C  10,C   9,H  25)          119.7952         0.353307   
     63. A(C   8,C   9,H  25)          120.2652         0.352031   
     64. A(C   9,C  10,H  26)          119.8262         0.353294   
     65. A(C  11,C  10,H  26)          120.0585         0.352296   
     66. A(C   9,C  10,C  11)          120.1149         0.432528   
     67. A(C  10,C  11,H  27)          118.5588         0.351924   
     68. A(C   6,C  11,H  27)          120.4717         0.350325   
     69. A(C   6,C  11,C  10)          120.9600         0.429148   
     70. A(O  13,C  12,C  14)          119.5397         0.441025   
     71. A(C   8,C  12,C  14)          121.2857         0.381596   
     72. A(C   8,C  12,O  13)          119.1661         0.440308   
     73. A(C  15,C  14,C  19)          119.3888         0.429554   
     74. A(C  12,C  14,C  19)          121.8047         0.404709   
     75. A(C  12,C  14,C  15)          118.8031         0.405266   
     76. A(C  14,C  15,C  16)          120.0965         0.430581   
     77. A(C  16,C  15,H  28)          119.5839         0.351869   
     78. A(C  14,C  15,H  28)          120.3189         0.351541   
     79. A(C  15,C  16,C  17)          120.0196         0.431954   
     80. A(C  17,C  16,H  29)          120.0236         0.353008   
     81. A(C  15,C  16,H  29)          119.9546         0.352280   
     82. A(C  16,C  17,C  18)          120.0686         0.433138   
     83. A(C  18,C  17,H  30)          119.9043         0.353058   
     84. A(C  16,C  17,H  30)          120.0241         0.352878   
     85. A(C  17,C  18,C  19)          119.9931         0.433528   
     86. A(C  19,C  18,H  31)          119.9804         0.353181   
     87. A(C  17,C  18,H  31)          120.0260         0.353062   
     88. A(C  14,C  19,C  18)          120.2903         0.431310   
     89. A(C  18,C  19,H  32)          118.2662         0.353677   
     90. A(C  14,C  19,H  32)          121.4429         0.351856   
     91. D(H  20,C   2,C   1,C   3)    -57.7773         0.011258   
     92. D(H  22,C   2,C   1,H   0)    175.5482         0.011258   
     93. D(H  21,C   2,C   1,C   3)   -177.4624         0.011258   
     94. D(H  21,C   2,C   1,H   0)    -63.7953         0.011258   
     95. D(H  21,C   2,C   1,C   6)     54.0795         0.011258   
     96. D(H  20,C   2,C   1,C   6)    173.7647         0.011258   
     97. D(H  22,C   2,C   1,C   6)    -66.5770         0.011258   
     98. D(H  20,C   2,C   1,H   0)     55.8898         0.011258   
     99. D(H  22,C   2,C   1,C   3)     61.8811         0.011258   
    100. D(O   5,C   3,C   1,C   2)      3.9480         0.010510   
    101. D(O   5,C   3,C   1,H   0)   -111.4946         0.010510   
    102. D(O   4,C   3,C   1,C   6)    -52.0073         0.010510   
    103. D(O   4,C   3,C   1,C   2)   -178.0832         0.010510   
    104. D(O   5,C   3,C   1,C   6)    130.0239         0.010510   
    105. D(O   4,C   3,C   1,H   0)     66.4742         0.010510   
    106. D(H  23,O   4,C   3,O   5)    177.5668         0.028966   
    107. D(H  23,O   4,C   3,C   1)     -0.4842         0.028966   
    108. D(C  11,C   6,C   1,C   2)    -90.5096         0.010858   
    109. D(C  11,C   6,C   1,H   0)     26.8413         0.010858   
    110. D(C   7,C   6,C   1,C   3)    -38.1577         0.010858   
    111. D(C  11,C   6,C   1,C   3)    143.2325         0.010858   
    112. D(C   7,C   6,C   1,C   2)     88.1002         0.010858   
    113. D(C   7,C   6,C   1,H   0)   -154.5489         0.010858   
    114. D(H  24,C   7,C   6,C  11)    175.5750         0.024054   
    115. D(H  24,C   7,C   6,C   1)     -3.0435         0.024054   
    116. D(C   8,C   7,C   6,C  11)     -5.1084         0.024054   
    117. D(C   8,C   7,C   6,C   1)    176.2731         0.024054   
    118. D(C  12,C   8,C   7,H  24)      5.3373         0.023893   
    119. D(C  12,C   8,C   7,C   6)   -173.9785         0.023893   
    120. D(C   9,C   8,C   7,H  24)   -175.1140         0.023893   
    121. D(C   9,C   8,C   7,C   6)      5.5702         0.023893   
    122. D(H  25,C   9,C   8,C  12)     -2.7683         0.025341   
    123. D(H  25,C   9,C   8,C   7)    177.6629         0.025341   
    124. D(C  10,C   9,C   8,C  12)    177.1333         0.025341   
    125. D(C  10,C   9,C   8,C   7)     -2.4355         0.025341   
    126. D(H  26,C  10,C   9,H  25)     -0.8994         0.026514   
    127. D(H  26,C  10,C   9,C   8)    179.1986         0.026514   
    128. D(C  11,C  10,C   9,H  25)    178.8712         0.026514   
    129. D(C  11,C  10,C   9,C   8)     -1.0308         0.026514   
    130. D(H  27,C  11,C  10,C   9)   -179.6716         0.025592   
    131. D(C   6,C  11,C  10,H  26)   -178.7877         0.025592   
    132. D(C   6,C  11,C  10,C   9)      1.4423         0.025592   
    133. D(H  27,C  11,C   6,C   7)   -177.2528         0.024178   
    134. D(H  27,C  11,C   6,C   1)      1.4162         0.024178   
    135. D(C  10,C  11,C   6,C   7)      1.6120         0.024178   
    136. D(H  27,C  11,C  10,H  26)      0.0984         0.025592   
    137. D(C  10,C  11,C   6,C   1)   -179.7190         0.024178   
    138. D(C  14,C  12,C   8,C   9)   -147.2973         0.012561   
    139. D(C  14,C  12,C   8,C   7)     32.2594         0.012561   
    140. D(O  13,C  12,C   8,C   9)     31.6415         0.012561   
    141. D(O  13,C  12,C   8,C   7)   -148.8019         0.012561   
    142. D(C  19,C  14,C  12,O  13)   -151.8056         0.012782   
    143. D(C  19,C  14,C  12,C   8)     27.1292         0.012782   
    144. D(C  15,C  14,C  12,O  13)     27.5187         0.012782   
    145. D(C  15,C  14,C  12,C   8)   -153.5464         0.012782   
    146. D(H  28,C  15,C  14,C  19)    177.1443         0.025219   
    147. D(H  28,C  15,C  14,C  12)     -2.1968         0.025219   
    148. D(C  16,C  15,C  14,C  19)     -3.1666         0.025219   
    149. D(C  16,C  15,C  14,C  12)    177.4924         0.025219   
    150. D(H  29,C  16,C  15,H  28)      0.1862         0.025515   
    151. D(H  29,C  16,C  15,C  14)   -179.5052         0.025515   
    152. D(C  17,C  16,C  15,H  28)    179.6441         0.025515   
    153. D(C  17,C  16,C  15,C  14)     -0.0473         0.025515   
    154. D(H  30,C  17,C  16,H  29)      0.8611         0.026182   
    155. D(H  30,C  17,C  16,C  15)   -178.5964         0.026182   
    156. D(C  18,C  17,C  16,H  29)   -178.5110         0.026182   
    157. D(C  18,C  17,C  16,C  15)      2.0315         0.026182   
    158. D(H  31,C  18,C  17,H  30)      0.1294         0.026350   
    159. D(H  31,C  18,C  17,C  16)    179.5023         0.026350   
    160. D(C  19,C  18,C  17,H  30)    179.8621         0.026350   
    161. D(C  19,C  18,C  17,C  16)     -0.7650         0.026350   
    162. D(H  32,C  19,C  18,C  17)    177.7692         0.026461   
    163. D(C  14,C  19,C  18,H  31)    177.2432         0.026461   
    164. D(C  14,C  19,C  18,C  17)     -2.4896         0.026461   
    165. D(H  32,C  19,C  14,C  15)   -175.8253         0.024808   
    166. D(H  32,C  19,C  14,C  12)      3.4952         0.024808   
    167. D(C  18,C  19,C  14,C  15)      4.4419         0.024808   
    168. D(H  32,C  19,C  18,H  31)     -2.4979         0.026461   
    169. D(C  18,C  19,C  14,C  12)   -176.2376         0.024808   
    -----------------------------------------------------------------

Number of atoms                         .... 33
Number of degrees of freedom            .... 169

         *************************************************************
         *                GEOMETRY OPTIMIZATION CYCLE   1            *
         *************************************************************
---------------------------------
CARTESIAN COORDINATES (ANGSTROEM)
---------------------------------
  H      1.201290   -0.169320    0.238970
  C      2.267940   -0.116730   -0.022740
  C      3.062190   -0.566290    1.203420
  C      2.431590   -1.112020   -1.171820
  O      1.778880   -0.741140   -2.304300
  O      3.047910   -2.166470   -1.106110
  C      2.602480    1.328070   -0.374840
  C      3.668120    1.673240   -1.223060
  C      3.892770    3.013660   -1.582870
  C      3.122820    4.026080   -1.001910
  C      2.104810    3.699730   -0.109590
  C      1.837300    2.361580    0.189690
  C      4.928070    3.410420   -2.582030
  O      5.489270    4.498750   -2.463910
  C      5.275890    2.525160   -3.729030
  C      6.553310    2.621000   -4.291240
  C      6.926120    1.767800   -5.333320
  C      6.025180    0.818560   -5.813780
  C      4.738110    0.747190   -5.284950
  C      4.355710    1.614220   -4.264250
  H      2.743020   -1.564120    1.524400
  H      2.914500    0.118040    2.045950
  H      4.136000   -0.614450    0.990430
  H      1.294810    0.099460   -2.221630
  H      4.319390    0.892730   -1.614100
  H      3.314570    5.068790   -1.245300
  H      1.515530    4.489480    0.351310
  H      1.031520    2.134850    0.887110
  H      7.264950    3.356240   -3.917380
  H      7.922510    1.838900   -5.763260
  H      6.323120    0.138980   -6.609640
  H      4.032900    0.011410   -5.666070
  H      3.334940    1.559060   -3.898160

----------------------------
CARTESIAN COORDINATES (A.U.)
----------------------------
  NO LB      ZA    FRAG     MASS         X           Y           Z
   0 H     1.0000    0     1.008    2.270109   -0.319968    0.451588
   1 C     6.0000    0    12.011    4.285785   -0.220588   -0.042972
   2 C     6.0000    0    12.011    5.786700   -1.070133    2.274134
   3 C     6.0000    0    12.011    4.595039   -2.101413   -2.214419
   4 O     8.0000    0    15.999    3.361596   -1.400552   -4.354496
   5 O     8.0000    0    15.999    5.759715   -4.094035   -2.090245
   6 C     6.0000    0    12.011    4.917974    2.509689   -0.708345
   7 C     6.0000    0    12.011    6.931742    3.161965   -2.311248
   8 C     6.0000    0    12.011    7.356269    5.694992   -2.991191
   9 C     6.0000    0    12.011    5.901275    7.608189   -1.893336
  10 C     6.0000    0    12.011    3.977514    6.991476   -0.207095
  11 C     6.0000    0    12.011    3.471994    4.462739    0.358462
  12 C     6.0000    0    12.011    9.312703    6.444760   -4.879330
  13 O     8.0000    0    15.999   10.373217    8.501405   -4.656115
  14 C     6.0000    0    12.011    9.969987    4.771861   -7.046845
  15 C     6.0000    0    12.011   12.383961    4.952972   -8.109268
  16 C     6.0000    0    12.011   13.088470    3.340658  -10.078514
  17 C     6.0000    0    12.011   11.385940    1.546854  -10.986452
  18 C     6.0000    0    12.011    8.953730    1.411984   -9.987108
  19 C     6.0000    0    12.011    8.231099    3.050434   -8.058265
  20 H     1.0000    0     1.008    5.183557   -2.955758    2.880699
  21 H     1.0000    0     1.008    5.507607    0.223063    3.866285
  22 H     1.0000    0     1.008    7.815907   -1.161142    1.871641
  23 H     1.0000    0     1.008    2.446836    0.187952   -4.198272
  24 H     1.0000    0     1.008    8.162464    1.687015   -3.050207
  25 H     1.0000    0     1.008    6.263630    9.578625   -2.353276
  26 H     1.0000    0     1.008    2.863937    8.483888    0.663880
  27 H     1.0000    0     1.008    1.949290    4.034282    1.676395
  28 H     1.0000    0     1.008   13.728766    6.342374   -7.402775
  29 H     1.0000    0     1.008   14.971374    3.475017  -10.890983
  30 H     1.0000    0     1.008   11.948965    0.262634  -12.490409
  31 H     1.0000    0     1.008    7.621077    0.021562  -10.707321
  32 H     1.0000    0     1.008    6.302123    2.946196   -7.366455

--------------------------------
INTERNAL COORDINATES (ANGSTROEM)
--------------------------------
 H      0   0   0     0.000000000000     0.00000000     0.00000000
 C      1   0   0     1.099545385466     0.00000000     0.00000000
 C      2   1   0     1.528530536725   107.40184304     0.00000000
 C      2   1   3     1.528976243439   104.57066696   117.82181232
 O      4   2   1     1.358710148965   113.40937132    66.47419400
 O      4   2   1     1.223124257384   125.08146123   248.50542881
 C      2   1   3     1.524250130917   108.25396870   240.68297565
 C      7   2   1     1.405065161087   122.59966495   205.45106012
 C      8   7   2     1.405936212991   120.65696885   176.27308761
 C      9   8   7     1.398331784842   119.73385859     5.57017989
 C     10   9   8     1.392509843771   119.93955219   357.56445915
 C     11  10   9     1.397059605386   120.11491138   358.96915744
 C      9   8   7     1.492509729684   122.38539064   186.02146003
 O     13   9   8     1.230186962742   119.16614643   211.19814032
 C     13   9   8     1.490058059272   121.28572938    32.25938995
 C     15  13   9     1.398952195788   118.80309306   206.45358636
 C     16  15  13     1.397450629718   120.09645342   177.49238495
 C     17  16  15     1.394127423445   120.01962203   359.95265421
 C     18  17  16     1.393306868820   120.06864705     2.03151075
 C     19  18  17     1.392766768307   119.99306793   359.23496767
 H      3   2   1     1.095701765172   110.57761066    55.88984251
 H      3   2   1     1.095434473577   111.29620666   296.20468617
 H      3   2   1     1.095788319795   111.48142907   175.54820722
 H      5   4   2     0.973532975199   113.81456996   359.51577966
 H      8   7   2     1.089155982676   119.61731512   356.95652055
 H     10   9   8     1.087773367343   120.26518371   177.66287748
 H     11  10   9     1.087834909763   119.82623444   179.19859480
 H     12  11  10     1.089533183386   118.55882667   180.32837245
 H     16  15  13     1.089394624000   120.31894726   357.80324183
 H     17  16  15     1.087518572577   119.95459473   180.49480250
 H     18  17  16     1.088113210838   120.02412603   181.40359222
 H     19  18  17     1.088092738189   120.02601343   179.50227627
 H     20  19  18     1.085834198485   118.26622754   177.76924758

---------------------------
INTERNAL COORDINATES (A.U.)
---------------------------
 H      0   0   0     0.000000000000     0.00000000     0.00000000
 C      1   0   0     2.077839650348     0.00000000     0.00000000
 C      2   1   0     2.888504101745   107.40184304     0.00000000
 C      2   1   3     2.889346365371   104.57066696   117.82181232
 O      4   2   1     2.567590076923   113.40937132    66.47419400
 O      4   2   1     2.311369874211   125.08146123   248.50542881
 C      2   1   3     2.880415307026   108.25396870   240.68297565
 C      7   2   1     2.655188354768   122.59966495   205.45106012
 C      8   7   2     2.656834404316   120.65696885   176.27308761
 C      9   8   7     2.642464117709   119.73385859     5.57017989
 C     10   9   8     2.631462243517   119.93955219   357.56445915
 C     11  10   9     2.640060046943   120.11491138   358.96915744
 C      9   8   7     2.820434641315   122.38539064   186.02146003
 O     13   9   8     2.324716453102   119.16614643   211.19814032
 C     13   9   8     2.815801655665   121.28572938    32.25938995
 C     15  13   9     2.643636524487   118.80309306   206.45358636
 C     16  15  13     2.640798975843   120.09645342   177.49238495
 C     17  16  15     2.634519026099   120.01962203   359.95265421
 C     18  17  16     2.632968402580   120.06864705     2.03151075
 C     19  18  17     2.631947760527   119.99306793   359.23496767
 H      3   2   1     2.070576260628   110.57761066    55.88984251
 H      3   2   1     2.070071152716   111.29620666   296.20468617
 H      3   2   1     2.070739825163   111.48142907   175.54820722
 H      5   4   2     1.839710705468   113.81456996   359.51577966
 H      8   7   2     2.058206524380   119.61731512   356.95652055
 H     10   9   8     2.055593760051   120.26518371   177.66287748
 H     11  10   9     2.055710058372   119.82623444   179.19859480
 H     12  11  10     2.058919330420   118.55882667   180.32837245
 H     16  15  13     2.058657491126   120.31894726   357.80324183
 H     17  16  15     2.055112267724   119.95459473   180.49480250
 H     18  17  16     2.056235971185   120.02412603   181.40359222
 H     19  18  17     2.056197283486   120.02601343   179.50227627
 H     20  19  18     2.051929261983   118.26622754   177.76924758

---------------------
BASIS SET INFORMATION
---------------------
There are 3 groups of distinct atoms

 Group   1 Type H   : 3s contracted to 1s pattern {3}
 Group   2 Type C   : 6s3p contracted to 2s1p pattern {33/3}
 Group   3 Type O   : 6s3p contracted to 2s1p pattern {33/3}

Atom   0H    basis set group =>   1
Atom   1C    basis set group =>   2
Atom   2C    basis set group =>   2
Atom   3C    basis set group =>   2
Atom   4O    basis set group =>   3
Atom   5O    basis set group =>   3
Atom   6C    basis set group =>   2
Atom   7C    basis set group =>   2
Atom   8C    basis set group =>   2
Atom   9C    basis set group =>   2
Atom  10C    basis set group =>   2
Atom  11C    basis set group =>   2
Atom  12C    basis set group =>   2
Atom  13O    basis set group =>   3
Atom  14C    basis set group =>   2
Atom  15C    basis set group =>   2
Atom  16C    basis set group =>   2
Atom  17C    basis set group =>   2
Atom  18C    basis set group =>   2
Atom  19C    basis set group =>   2
Atom  20H    basis set group =>   1
Atom  21H    basis set group =>   1
Atom  22H    basis set group =>   1
Atom  23H    basis set group =>   1
Atom  24H    basis set group =>   1
Atom  25H    basis set group =>   1
Atom  26H    basis set group =>   1
Atom  27H    basis set group =>   1
Atom  28H    basis set group =>   1
Atom  29H    basis set group =>   1
Atom  30H    basis set group =>   1
Atom  31H    basis set group =>   1
Atom  32H    basis set group =>   1
---------------------------------
AUXILIARY/J BASIS SET INFORMATION
---------------------------------
There are 3 groups of distinct atoms

 Group   1 Type H   : 5s2p1d contracted to 3s1p1d pattern {311/2/1}
 Group   2 Type C   : 12s5p4d2f1g contracted to 6s4p3d1f1g pattern {711111/2111/211/2/1}
 Group   3 Type O   : 12s5p4d2f1g contracted to 6s4p3d1f1g pattern {711111/2111/211/2/1}

Atom   0H    basis set group =>   1
Atom   1C    basis set group =>   2
Atom   2C    basis set group =>   2
Atom   3C    basis set group =>   2
Atom   4O    basis set group =>   3
Atom   5O    basis set group =>   3
Atom   6C    basis set group =>   2
Atom   7C    basis set group =>   2
Atom   8C    basis set group =>   2
Atom   9C    basis set group =>   2
Atom  10C    basis set group =>   2
Atom  11C    basis set group =>   2
Atom  12C    basis set group =>   2
Atom  13O    basis set group =>   3
Atom  14C    basis set group =>   2
Atom  15C    basis set group =>   2
Atom  16C    basis set group =>   2
Atom  17C    basis set group =>   2
Atom  18C    basis set group =>   2
Atom  19C    basis set group =>   2
Atom  20H    basis set group =>   1
Atom  21H    basis set group =>   1
Atom  22H    basis set group =>   1
Atom  23H    basis set group =>   1
Atom  24H    basis set group =>   1
Atom  25H    basis set group =>   1
Atom  26H    basis set group =>   1
Atom  27H    basis set group =>   1
Atom  28H    basis set group =>   1
Atom  29H    basis set group =>   1
Atom  30H    basis set group =>   1
Atom  31H    basis set group =>   1
Atom  32H    basis set group =>   1
------------------------------------------------------------------------------
                           ORCA GTO INTEGRAL CALCULATION
                           -- RI-GTO INTEGRALS CHOSEN --
------------------------------------------------------------------------------
------------------------------------------------------------------------------
                   ___                                                        
                  /   \      - P O W E R E D   B Y -                         
                 /     \                                                     
                 |  |  |   _    _      __       _____    __    __             
                 |  |  |  | |  | |    /  \     |  _  \  |  |  /  |          
                  \  \/   | |  | |   /    \    | | | |  |  | /  /          
                 / \  \   | |__| |  /  /\  \   | |_| |  |  |/  /          
                |  |  |   |  __  | /  /__\  \  |    /   |      \           
                |  |  |   | |  | | |   __   |  |    \   |  |\   \          
                \     /   | |  | | |  |  |  |  | |\  \  |  | \   \       
                 \___/    |_|  |_| |__|  |__|  |_| \__\ |__|  \__/        
                                                                              
                      - O R C A' S   B I G   F R I E N D -                    
                                      &                                       
                       - I N T E G R A L  F E E D E R -                       
                                                                              
 v1 FN, 2020, v2 2021                                                         
------------------------------------------------------------------------------


Reading SHARK input file Dexketoprofen\Dexketoprofen_TPSS_STO-3G\Dexketoprofen_TPSS_STO-3G.orcainp.SHARKINP.tmp ... ok
----------------------
SHARK INTEGRAL PACKAGE
----------------------

Number of atoms                             ...     33
Number of basis functions                   ...    109
Number of shells                            ...     71
Maximum angular momentum                    ...      1
Integral batch strategy                     ... SHARK/LIBINT Hybrid
RI-J (if used) integral strategy            ... SPLIT-RIJ (Revised 2003 algorithm where possible)
Printlevel                                  ...      1
Contraction scheme used                     ... SEGMENTED contraction
Coulomb Range Separation                    ... NOT USED
Exchange Range Separation                   ... NOT USED
Finite Nucleus Model                        ... NOT USED
Auxiliary Coulomb fitting basis             ... AVAILABLE
   # of basis functions in Aux-J            ...   1085
   # of shells in Aux-J                     ...    355
   Maximum angular momentum in Aux-J        ...      4
Auxiliary J/K fitting basis                 ... NOT available
Auxiliary Correlation fitting basis         ... NOT available
Auxiliary 'external' fitting basis          ... NOT available
Integral threshold                          ...     2.500000e-11
Primitive cut-off                           ...     2.500000e-12
Primitive pair pre-selection threshold      ...     2.500000e-12

Calculating pre-screening integrals         ... done (  0.0 sec) Dimension = 71
Organizing shell pair data                  ... done (  0.0 sec)
Shell pair information
Total number of shell pairs                 ...      2556
Shell pairs after pre-screening             ...      2142
Total number of primitive shell pairs       ...     23004
Primitive shell pairs kept                  ...     11819
          la=0 lb=0:   1058 shell pairs
          la=1 lb=0:    895 shell pairs
          la=1 lb=1:    189 shell pairs

Calculating one electron integrals          ... done (  0.0 sec)
Calculating RI/J V-Matrix + Cholesky decomp.... done (  0.0 sec)
Calculating Nuclear repulsion               ... done (  0.0 sec) ENN=   1336.467642176996 Eh

SHARK setup successfully completed in   0.1 seconds

Maximum memory used throughout the entire GTOINT-calculation: 24.3 MB
-------------------------------------------------------------------------------
                                 ORCA SCF
-------------------------------------------------------------------------------

------------
SCF SETTINGS
------------
Hamiltonian:
 Density Functional     Method          .... DFT(GTOs)
 Exchange Functional    Exchange        .... TPSS
 Correlation Functional Correlation     .... TPSS
 LDA part of GGA corr.  LDAOpt          .... PW91-LDA
 Gradients option       PostSCFGGA      .... off
   Density functional embedding theory  .... OFF
   NL short-range parameter             ....  5.000000
 RI-approximation to the Coulomb term is turned on
   Number of AuxJ basis functions       .... 1085


General Settings:
 Integral files         IntName         .... Dexketoprofen\Dexketoprofen_TPSS_STO-3G\Dexketoprofen_TPSS_STO-3G.orcainp
 Hartree-Fock type      HFTyp           .... RHF
 Total Charge           Charge          ....    0
 Multiplicity           Mult            ....    1
 Number of Electrons    NEL             ....  134
 Basis Dimension        Dim             ....  109
 Nuclear Repulsion      ENuc            ....   1336.4676421770 Eh

Convergence Acceleration:
 DIIS                   CNVDIIS         .... on
   Start iteration      DIISMaxIt       ....    12
   Startup error        DIISStart       ....  0.200000
   # of expansion vecs  DIISMaxEq       ....     5
   Bias factor          DIISBfac        ....   1.050
   Max. coefficient     DIISMaxC        ....  10.000
 Trust-Rad. Augm. Hess. CNVTRAH         .... auto
   Auto Start mean grad. ratio tolernc. ....  1.125000
   Auto Start start iteration           ....    20
   Auto Start num. interpolation iter.  ....    10
   Max. Number of Micro iterations      ....    16
   Max. Number of Macro iterations      .... Maxiter - #DIIS iter
   Number of Davidson start vectors     ....     2
   Converg. threshold I  (grad. norm)   ....   1.000e-05
   Converg. threshold II (energy diff.) ....   1.000e-08
   Grad. Scal. Fac. for Micro threshold ....   0.100
   Minimum threshold for Micro iter.    ....   0.010
   NR start threshold (gradient norm)   ....   0.001
   Initial trust radius                 ....   0.400
   Minimum AH scaling param. (alpha)    ....   1.000
   Maximum AH scaling param. (alpha)    .... 1000.000
   Orbital update algorithm             .... Taylor
   White noise on init. David. guess    .... on
   Maximum white noise                  ....   0.010
   Quad. conv. algorithm                .... NR
 SOSCF                  CNVSOSCF        .... on
   Start iteration      SOSCFMaxIt      ....   150
   Startup grad/error   SOSCFStart      ....  0.003300
 Level Shifting         CNVShift        .... on
   Level shift para.    LevelShift      ....    0.2500
   Turn off err/grad.   ShiftErr        ....    0.0010
 Zerner damping         CNVZerner       .... off
 Static damping         CNVDamp         .... on
   Fraction old density DampFac         ....    0.7000
   Max. Damping (<1)    DampMax         ....    0.9800
   Min. Damping (>=0)   DampMin         ....    0.0000
   Turn off err/grad.   DampErr         ....    0.1000
 Fernandez-Rico         CNVRico         .... off

SCF Procedure:
 Maximum # iterations   MaxIter         ....   125
 SCF integral mode      SCFMode         .... Direct
   Integral package                     .... SHARK and LIBINT hybrid scheme
 Reset frequency        DirectResetFreq ....    20
 Integral Threshold     Thresh          ....  2.500e-11 Eh
 Primitive CutOff       TCut            ....  2.500e-12 Eh

Convergence Tolerance:
 Convergence Check Mode ConvCheckMode   .... Total+1el-Energy
 Convergence forced     ConvForced      .... 0
 Energy Change          TolE            ....  1.000e-08 Eh
 1-El. energy change                    ....  1.000e-05 Eh
 Orbital Gradient       TolG            ....  1.000e-05
 Orbital Rotation angle TolX            ....  1.000e-05
 DIIS Error             TolErr          ....  5.000e-07


Diagonalization of the overlap matrix:
Smallest eigenvalue                        ... 1.719e-01
Time for diagonalization                   ...    0.001 sec
Threshold for overlap eigenvalues          ... 1.000e-08
Number of eigenvalues below threshold      ... 0
Time for construction of square roots      ...    0.001 sec
Total time needed                          ...    0.002 sec

Time for model grid setup =    0.239 sec

------------------------------
INITIAL GUESS: MODEL POTENTIAL
------------------------------
Loading Hartree-Fock densities                     ... done
Calculating cut-offs                               ... done
Initializing the effective Hamiltonian             ... done
Setting up the integral package (SHARK)            ... done
Starting the Coulomb interaction                   ... done (   0.1 sec)
Reading the grid                                   ... done
Mapping shells                                     ... done
Starting the XC term evaluation                    ... done (   0.1 sec)
  promolecular density results
     # of electrons  =    133.989475410
     EX              =   -110.372654151
     EC              =     -4.477155516
     EX+EC           =   -114.849809667
Transforming the Hamiltonian                       ... done (   0.0 sec)
Diagonalizing the Hamiltonian                      ... done (   0.0 sec)
Back transforming the eigenvectors                 ... done (   0.0 sec)
Now organizing SCF variables                       ... done
                      ------------------
                      INITIAL GUESS DONE (   0.4 sec)
                      ------------------
-------------------
DFT GRID GENERATION
-------------------

General Integration Accuracy     IntAcc      ... 4.388
Radial Grid Type                 RadialGrid  ... OptM3 with GC (2021)
Angular Grid (max. ang.)         AngularGrid ... 4 (Lebedev-302)
Angular grid pruning method      GridPruning ... 4 (adaptive)
Weight generation scheme         WeightScheme... Becke
Basis function cutoff            BFCut       ... 1.0000e-11
Integration weight cutoff        WCut        ... 1.0000e-14
Angular grids for H and He will be reduced by one unit
Partially contracted basis set               ... off
Rotationally invariant grid construction     ... off

Total number of grid points                  ...   158427
Total number of batches                      ...     2494
Average number of points per batch           ...       63
Average number of grid points per atom       ...     4801
Time for grid setup =    0.858 sec


--------------------
CPCM SOLVATION MODEL
--------------------
CPCM parameters:
  Epsilon                                         ...      80.4000
  Refrac                                          ...       1.3300
  Rsolv                                           ...       1.3000
  Surface type                                    ... GAUSSIAN VDW
  Epsilon function type                           ...         CPCM
Radii:
 Radius for H  used is    2.4944 Bohr (=   1.3200 Ang.)
 Radius for C  used is    3.8550 Bohr (=   2.0400 Ang.)
 Radius for O  used is    3.4469 Bohr (=   1.8240 Ang.)
Calculating surface                               ...        done! (  0.0s)
GEPOL surface points                              ...         1773
GEPOL Volume                                      ...    2081.6078
GEPOL Surface-area                                ...    1084.9852
Calculating surface distance matrix               ...        done! (  0.0s)
Performing Cholesky decomposition & store         ...        done! (  0.0s)
Overall time for CPCM initialization              ...                 0.1s
--------------
SCF ITERATIONS
--------------
ITER       Energy         Delta-E        Max-DP      RMS-DP      [F,P]     Damp
               ***  Starting incremental Fock matrix formation  ***
  0   -833.2436542167   0.000000000000 0.13088625  0.00427344  0.1604105 0.7000
  1   -833.3375390158  -0.093884799041 0.07975768  0.00278188  0.0695329 0.7000
                               ***Turning on DIIS***
  2   -833.3680567075  -0.030517691700 0.10348205  0.00407564  0.0421605 0.0000
  3   -833.4233533024  -0.055296594883 0.07279899  0.00218880  0.0407200 0.0000
  4   -833.4330961385  -0.009742836171 0.01891417  0.00078303  0.0192829 0.0000
                      *** Initiating the SOSCF procedure ***
                           *** Shutting down DIIS ***
                      *** Re-Reading the Fockian *** 
                      *** Removing any level shift *** 
ITER      Energy       Delta-E        Grad      Rot      Max-DP    RMS-DP
  5   -833.43543517  -0.0023390279  0.001181  0.001181  0.003734  0.000169
               *** Restarting incremental Fock matrix formation ***
  6   -833.43551495  -0.0000797806  0.001486  0.006447  0.009588  0.000208
  7   -833.43544839   0.0000665613  0.004262  0.004802  0.007464  0.000153
  8   -833.43552511  -0.0000767235  0.000082  0.000426  0.000607  0.000025
  9   -833.43552466   0.0000004445  0.000119  0.000177  0.000381  0.000015
 10   -833.43552537  -0.0000007006  0.000031  0.000166  0.000244  0.000007
 11   -833.43552531   0.0000000559  0.000057  0.000115  0.000179  0.000005
 12   -833.43552538  -0.0000000746  0.000007  0.000022  0.000073  0.000002
 13   -833.43552538   0.0000000024  0.000010  0.000017  0.000038  0.000001
                 **** Energy Check signals convergence ****
              ***Rediagonalizing the Fockian in SOSCF/NRSCF***

               *****************************************************
               *                     SUCCESS                       *
               *           SCF CONVERGED AFTER  14 CYCLES          *
               *****************************************************


----------------
TOTAL SCF ENERGY
----------------

Total Energy       :         -833.43552539 Eh          -22678.93362 eV

Components:
Nuclear Repulsion  :         1336.46764218 Eh           36367.13341 eV
Electronic Energy  :        -2169.90316756 Eh          -59046.06703 eV
One Electron Energy:        -3791.57756864 Eh         -103174.07091 eV
Two Electron Energy:         1621.67440107 Eh           44128.00388 eV
CPCM Dielectric    :           -0.01148580 Eh              -0.31254 eV

Virial components:
Potential Energy   :        -1653.65245700 Eh          -44998.17102 eV
Kinetic Energy     :          820.21693161 Eh           22319.23740 eV
Virial Ratio       :            2.01611597


DFT components:
N(Alpha)           :       67.000007087576 electrons
N(Beta)            :       67.000007087576 electrons
N(Total)           :      134.000014175151 electrons
E(X)               :     -113.585358086843 Eh       
E(C)               :       -4.633209477209 Eh       
E(XC)              :     -118.218567564051 Eh       
DFET-embed. en.    :        0.000000000000 Eh       
CPCM Solvation Model Properties:
Surface-charge          :           -0.01133135
Charge-correction       :            0.00004353 Eh               0.00118 eV
Free-energy (cav+disp)  :  This term is not implemented in the current solvation scheme

---------------
SCF CONVERGENCE
---------------

  Last Energy change         ...   -4.3166e-09  Tolerance :   1.0000e-08
  Last MAX-Density change    ...    1.2174e-05  Tolerance :   1.0000e-07
  Last RMS-Density change    ...    5.0735e-07  Tolerance :   5.0000e-09
  Last Orbital Gradient      ...    1.5636e-06  Tolerance :   1.0000e-05
  Last Orbital Rotation      ...    8.5867e-06  Tolerance :   1.0000e-05

             **** THE GBW FILE WAS UPDATED (Dexketoprofen\Dexketoprofen_TPSS_STO-3G\Dexketoprofen_TPSS_STO-3G.orcainp.gbw) ****
             **** DENSITY Dexketoprofen\Dexketoprofen_TPSS_STO-3G\Dexketoprofen_TPSS_STO-3G.orcainp.scfp WAS UPDATED ****
             **** ENERGY FILE WAS UPDATED (Dexketoprofen\Dexketoprofen_TPSS_STO-3G\Dexketoprofen_TPSS_STO-3G.orcainp.en.tmp) ****
             **** THE GBW FILE WAS UPDATED (Dexketoprofen\Dexketoprofen_TPSS_STO-3G\Dexketoprofen_TPSS_STO-3G.orcainp.gbw) ****
             **** DENSITY Dexketoprofen\Dexketoprofen_TPSS_STO-3G\Dexketoprofen_TPSS_STO-3G.orcainp.scfp WAS UPDATED ****
----------------
ORBITAL ENERGIES
----------------

  NO   OCC          E(Eh)            E(eV) 
   0   2.0000     -18.694616      -508.7064 
   1   2.0000     -18.647332      -507.4197 
   2   2.0000     -18.624241      -506.7914 
   3   2.0000      -9.916046      -269.8293 
   4   2.0000      -9.896006      -269.2840 
   5   2.0000      -9.851456      -268.0717 
   6   2.0000      -9.837980      -267.7050 
   7   2.0000      -9.833849      -267.5926 
   8   2.0000      -9.833255      -267.5765 
   9   2.0000      -9.830294      -267.4959 
  10   2.0000      -9.830087      -267.4903 
  11   2.0000      -9.829875      -267.4845 
  12   2.0000      -9.829782      -267.4820 
  13   2.0000      -9.829294      -267.4687 
  14   2.0000      -9.828672      -267.4518 
  15   2.0000      -9.828327      -267.4424 
  16   2.0000      -9.827944      -267.4320 
  17   2.0000      -9.827806      -267.4282 
  18   2.0000      -9.827296      -267.4143 
  19   2.0000      -0.961220       -26.1561 
  20   2.0000      -0.921676       -25.0801 
  21   2.0000      -0.882776       -24.0215 
  22   2.0000      -0.763865       -20.7858 
  23   2.0000      -0.757762       -20.6198 
  24   2.0000      -0.704951       -19.1827 
  25   2.0000      -0.672817       -18.3083 
  26   2.0000      -0.655924       -17.8486 
  27   2.0000      -0.650005       -17.6875 
  28   2.0000      -0.638696       -17.3798 
  29   2.0000      -0.566602       -15.4180 
  30   2.0000      -0.556183       -15.1345 
  31   2.0000      -0.527499       -14.3540 
  32   2.0000      -0.522149       -14.2084 
  33   2.0000      -0.508534       -13.8379 
  34   2.0000      -0.486120       -13.2280 
  35   2.0000      -0.463875       -12.6227 
  36   2.0000      -0.443449       -12.0668 
  37   2.0000      -0.419547       -11.4164 
  38   2.0000      -0.412284       -11.2188 
  39   2.0000      -0.392348       -10.6763 
  40   2.0000      -0.373145       -10.1538 
  41   2.0000      -0.364974        -9.9314 
  42   2.0000      -0.358834        -9.7644 
  43   2.0000      -0.352174        -9.5831 
  44   2.0000      -0.345403        -9.3989 
  45   2.0000      -0.344276        -9.3682 
  46   2.0000      -0.332703        -9.0533 
  47   2.0000      -0.313740        -8.5373 
  48   2.0000      -0.305717        -8.3190 
  49   2.0000      -0.301692        -8.2094 
  50   2.0000      -0.299846        -8.1592 
  51   2.0000      -0.285043        -7.7564 
  52   2.0000      -0.283455        -7.7132 
  53   2.0000      -0.275932        -7.5085 
  54   2.0000      -0.267007        -7.2656 
  55   2.0000      -0.262628        -7.1465 
  56   2.0000      -0.260753        -7.0954 
  57   2.0000      -0.247619        -6.7380 
  58   2.0000      -0.243966        -6.6387 
  59   2.0000      -0.204351        -5.5607 
  60   2.0000      -0.178245        -4.8503 
  61   2.0000      -0.175604        -4.7784 
  62   2.0000      -0.170588        -4.6419 
  63   2.0000      -0.165898        -4.5143 
  64   2.0000      -0.143376        -3.9015 
  65   2.0000      -0.101867        -2.7719 
  66   2.0000      -0.096422        -2.6238 
  67   0.0000       0.001008         0.0274 
  68   0.0000       0.049815         1.3555 
  69   0.0000       0.051215         1.3936 
  70   0.0000       0.056679         1.5423 
  71   0.0000       0.087815         2.3896 
  72   0.0000       0.112956         3.0737 
  73   0.0000       0.200521         5.4564 
  74   0.0000       0.228823         6.2266 
  75   0.0000       0.279002         7.5920 
  76   0.0000       0.302170         8.2225 
  77   0.0000       0.312266         8.4972 
  78   0.0000       0.319475         8.6934 
  79   0.0000       0.345354         9.3976 
  80   0.0000       0.367034         9.9875 
  81   0.0000       0.372346        10.1320 
  82   0.0000       0.381162        10.3720 
  83   0.0000       0.387053        10.5322 
  84   0.0000       0.403861        10.9896 
  85   0.0000       0.407000        11.0750 
  86   0.0000       0.411743        11.2041 
  87   0.0000       0.421523        11.4702 
  88   0.0000       0.424004        11.5377 
  89   0.0000       0.433194        11.7878 
  90   0.0000       0.448635        12.2080 
  91   0.0000       0.452657        12.3174 
  92   0.0000       0.465498        12.6669 
  93   0.0000       0.481379        13.0990 
  94   0.0000       0.496780        13.5181 
  95   0.0000       0.512561        13.9475 
  96   0.0000       0.543394        14.7865 
  97   0.0000       0.549281        14.9467 
  98   0.0000       0.560181        15.2433 
  99   0.0000       0.562094        15.2953 
 100   0.0000       0.569256        15.4902 
 101   0.0000       0.571383        15.5481 
 102   0.0000       0.607081        16.5195 
 103   0.0000       0.634780        17.2732 
 104   0.0000       0.646200        17.5840 
 105   0.0000       0.723545        19.6887 
 106   0.0000       0.735399        20.0112 
 107   0.0000       0.767504        20.8848 
 108   0.0000       0.777048        21.1445 

                    ********************************
                    * MULLIKEN POPULATION ANALYSIS *
                    ********************************

-----------------------
MULLIKEN ATOMIC CHARGES
-----------------------
   0 H :    0.089737
   1 C :   -0.084477
   2 C :   -0.201421
   3 C :    0.216962
   4 O :   -0.243404
   5 O :   -0.230825
   6 C :   -0.008513
   7 C :   -0.079160
   8 C :   -0.025611
   9 C :   -0.075390
  10 C :   -0.079516
  11 C :   -0.076087
  12 C :    0.140120
  13 O :   -0.189401
  14 C :   -0.026476
  15 C :   -0.072637
  16 C :   -0.078828
  17 C :   -0.075843
  18 C :   -0.078793
  19 C :   -0.075067
  20 H :    0.076089
  21 H :    0.075655
  22 H :    0.074467
  23 H :    0.250518
  24 H :    0.085844
  25 H :    0.087424
  26 H :    0.085907
  27 H :    0.084766
  28 H :    0.087952
  29 H :    0.085970
  30 H :    0.086223
  31 H :    0.085854
  32 H :    0.087963
Sum of atomic charges:   -0.0000000

--------------------------------
MULLIKEN REDUCED ORBITAL CHARGES
--------------------------------
  0 H s       :     0.910263  s :     0.910263
  1 C s       :     3.180825  s :     3.180825
      pz      :     0.963349  p :     2.903652
      px      :     1.008236
      py      :     0.932067
  2 C s       :     3.190344  s :     3.190344
      pz      :     0.973412  p :     3.011077
      px      :     1.012099
      py      :     1.025566
  3 C s       :     3.087699  s :     3.087699
      pz      :     0.875692  p :     2.695339
      px      :     0.930354
      py      :     0.889294
  4 O s       :     3.823979  s :     3.823979
      pz      :     1.498969  p :     4.419426
      px      :     1.524794
      py      :     1.395663
  5 O s       :     3.887870  s :     3.887870
      pz      :     1.731063  p :     4.342955
      px      :     1.311170
      py      :     1.300722
  6 C s       :     3.147048  s :     3.147048
      pz      :     0.974659  p :     2.861465
      px      :     0.961568
      py      :     0.925238
  7 C s       :     3.156262  s :     3.156262
      pz      :     0.986552  p :     2.922898
      px      :     0.972541
      py      :     0.963806
  8 C s       :     3.140270  s :     3.140270
      pz      :     0.974329  p :     2.885341
      px      :     0.966071
      py      :     0.944942
  9 C s       :     3.150867  s :     3.150867
      pz      :     0.972809  p :     2.924523
      px      :     0.967953
      py      :     0.983760
 10 C s       :     3.149172  s :     3.149172
      pz      :     0.981740  p :     2.930345
      px      :     0.980678
      py      :     0.967926
 11 C s       :     3.154255  s :     3.154255
      pz      :     0.987924  p :     2.921832
      px      :     0.987813
      py      :     0.946095
 12 C s       :     3.125027  s :     3.125027
      pz      :     0.954883  p :     2.734854
      px      :     0.923993
      py      :     0.855977
 13 O s       :     3.891466  s :     3.891466
      pz      :     1.637389  p :     4.297935
      px      :     1.375801
      py      :     1.284746
 14 C s       :     3.138248  s :     3.138248
      pz      :     0.965307  p :     2.888229
      px      :     0.954163
      py      :     0.968758
 15 C s       :     3.153067  s :     3.153067
      pz      :     0.968207  p :     2.919570
      px      :     0.967842
      py      :     0.983521
 16 C s       :     3.149191  s :     3.149191
      pz      :     0.973364  p :     2.929636
      px      :     0.987318
      py      :     0.968954
 17 C s       :     3.150206  s :     3.150206
      pz      :     0.988427  p :     2.925637
      px      :     0.955741
      py      :     0.981469
 18 C s       :     3.147990  s :     3.147990
      pz      :     0.975249  p :     2.930802
      px      :     0.969274
      py      :     0.986280
 19 C s       :     3.151710  s :     3.151710
      pz      :     0.975098  p :     2.923357
      px      :     0.988834
      py      :     0.959425
 20 H s       :     0.923911  s :     0.923911
 21 H s       :     0.924345  s :     0.924345
 22 H s       :     0.925533  s :     0.925533
 23 H s       :     0.749482  s :     0.749482
 24 H s       :     0.914156  s :     0.914156
 25 H s       :     0.912576  s :     0.912576
 26 H s       :     0.914093  s :     0.914093
 27 H s       :     0.915234  s :     0.915234
 28 H s       :     0.912048  s :     0.912048
 29 H s       :     0.914030  s :     0.914030
 30 H s       :     0.913777  s :     0.913777
 31 H s       :     0.914146  s :     0.914146
 32 H s       :     0.912037  s :     0.912037


                     *******************************
                     * LOEWDIN POPULATION ANALYSIS *
                     *******************************

----------------------
LOEWDIN ATOMIC CHARGES
----------------------
   0 H :    0.051287
   1 C :   -0.048737
   2 C :   -0.103821
   3 C :    0.132607
   4 O :   -0.134541
   5 O :   -0.178983
   6 C :   -0.001189
   7 C :   -0.046420
   8 C :   -0.029754
   9 C :   -0.039039
  10 C :   -0.042084
  11 C :   -0.041888
  12 C :    0.100254
  13 O :   -0.131497
  14 C :   -0.030450
  15 C :   -0.035919
  16 C :   -0.041547
  17 C :   -0.036429
  18 C :   -0.041679
  19 C :   -0.038121
  20 H :    0.041572
  21 H :    0.041136
  22 H :    0.039995
  23 H :    0.182802
  24 H :    0.047934
  25 H :    0.048697
  26 H :    0.047627
  27 H :    0.046778
  28 H :    0.049119
  29 H :    0.047575
  30 H :    0.047732
  31 H :    0.047533
  32 H :    0.049448

-------------------------------
LOEWDIN REDUCED ORBITAL CHARGES
-------------------------------
  0 H s       :     0.948713  s :     0.948713
  1 C s       :     3.037178  s :     3.037178
      pz      :     1.004698  p :     3.011559
      px      :     1.029002
      py      :     0.977859
  2 C s       :     3.011551  s :     3.011551
      pz      :     1.006724  p :     3.092270
      px      :     1.037763
      py      :     1.047782
  3 C s       :     3.050407  s :     3.050407
      pz      :     0.917759  p :     2.816986
      px      :     0.955159
      py      :     0.944068
  4 O s       :     3.676618  s :     3.676618
      pz      :     1.520451  p :     4.457923
      px      :     1.532394
      py      :     1.405078
  5 O s       :     3.771398  s :     3.771398
      pz      :     1.738396  p :     4.407585
      px      :     1.327114
      py      :     1.342074
  6 C s       :     3.039657  s :     3.039657
      pz      :     0.994436  p :     2.961532
      px      :     0.994681
      py      :     0.972415
  7 C s       :     3.033665  s :     3.033665
      pz      :     1.005794  p :     3.012755
      px      :     1.000249
      py      :     1.006712
  8 C s       :     3.037232  s :     3.037232
      pz      :     0.999042  p :     2.992522
      px      :     0.995831
      py      :     0.997648
  9 C s       :     3.026256  s :     3.026256
      pz      :     0.996336  p :     3.012783
      px      :     1.000670
      py      :     1.015777
 10 C s       :     3.023693  s :     3.023693
      pz      :     1.001320  p :     3.018391
      px      :     1.006206
      py      :     1.010865
 11 C s       :     3.030842  s :     3.030842
      pz      :     1.001192  p :     3.011046
      px      :     1.007092
      py      :     1.002762
 12 C s       :     3.054585  s :     3.054585
      pz      :     0.978074  p :     2.845161
      px      :     0.950032
      py      :     0.917055
 13 O s       :     3.776074  s :     3.776074
      pz      :     1.642844  p :     4.355423
      px      :     1.388664
      py      :     1.323915
 14 C s       :     3.035053  s :     3.035053
      pz      :     0.997354  p :     2.995397
      px      :     1.001371
      py      :     0.996672
 15 C s       :     3.028438  s :     3.028438
      pz      :     0.997434  p :     3.007481
      px      :     1.007542
      py      :     1.002505
 16 C s       :     3.023803  s :     3.023803
      pz      :     1.000941  p :     3.017743
      px      :     1.015363
      py      :     1.001439
 17 C s       :     3.024056  s :     3.024056
      pz      :     1.004296  p :     3.012372
      px      :     1.004840
      py      :     1.003236
 18 C s       :     3.022606  s :     3.022606
      pz      :     1.002762  p :     3.019073
      px      :     1.009883
      py      :     1.006428
 19 C s       :     3.026851  s :     3.026851
      pz      :     1.003319  p :     3.011270
      px      :     1.017278
      py      :     0.990673
 20 H s       :     0.958428  s :     0.958428
 21 H s       :     0.958864  s :     0.958864
 22 H s       :     0.960005  s :     0.960005
 23 H s       :     0.817198  s :     0.817198
 24 H s       :     0.952066  s :     0.952066
 25 H s       :     0.951303  s :     0.951303
 26 H s       :     0.952373  s :     0.952373
 27 H s       :     0.953222  s :     0.953222
 28 H s       :     0.950881  s :     0.950881
 29 H s       :     0.952425  s :     0.952425
 30 H s       :     0.952268  s :     0.952268
 31 H s       :     0.952467  s :     0.952467
 32 H s       :     0.950552  s :     0.950552


                      *****************************
                      * MAYER POPULATION ANALYSIS *
                      *****************************

  NA   - Mulliken gross atomic population
  ZA   - Total nuclear charge
  QA   - Mulliken gross atomic charge
  VA   - Mayer's total valence
  BVA  - Mayer's bonded valence
  FA   - Mayer's free valence

  ATOM       NA         ZA         QA         VA         BVA        FA
  0 H      0.9103     1.0000     0.0897     0.9919     0.9919    -0.0000
  1 C      6.0845     6.0000    -0.0845     3.9599     3.9599    -0.0000
  2 C      6.2014     6.0000    -0.2014     3.9561     3.9561     0.0000
  3 C      5.7830     6.0000     0.2170     3.9121     3.9121     0.0000
  4 O      8.2434     8.0000    -0.2434     2.3112     2.3112    -0.0000
  5 O      8.2308     8.0000    -0.2308     2.2764     2.2764    -0.0000
  6 C      6.0085     6.0000    -0.0085     3.9690     3.9690     0.0000
  7 C      6.0792     6.0000    -0.0792     3.9666     3.9666     0.0000
  8 C      6.0256     6.0000    -0.0256     3.9727     3.9727     0.0000
  9 C      6.0754     6.0000    -0.0754     3.9686     3.9686    -0.0000
 10 C      6.0795     6.0000    -0.0795     3.9700     3.9700     0.0000
 11 C      6.0761     6.0000    -0.0761     3.9680     3.9680    -0.0000
 12 C      5.8599     6.0000     0.1401     3.9246     3.9246     0.0000
 13 O      8.1894     8.0000    -0.1894     2.2141     2.2141    -0.0000
 14 C      6.0265     6.0000    -0.0265     3.9734     3.9734    -0.0000
 15 C      6.0726     6.0000    -0.0726     3.9678     3.9678    -0.0000
 16 C      6.0788     6.0000    -0.0788     3.9698     3.9698     0.0000
 17 C      6.0758     6.0000    -0.0758     3.9700     3.9700    -0.0000
 18 C      6.0788     6.0000    -0.0788     3.9703     3.9703     0.0000
 19 C      6.0751     6.0000    -0.0751     3.9687     3.9687    -0.0000
 20 H      0.9239     1.0000     0.0761     0.9942     0.9942     0.0000
 21 H      0.9243     1.0000     0.0757     0.9943     0.9943     0.0000
 22 H      0.9255     1.0000     0.0745     0.9945     0.9945     0.0000
 23 H      0.7495     1.0000     0.2505     0.9372     0.9372    -0.0000
 24 H      0.9142     1.0000     0.0858     0.9926     0.9926    -0.0000
 25 H      0.9126     1.0000     0.0874     0.9924     0.9924     0.0000
 26 H      0.9141     1.0000     0.0859     0.9926     0.9926     0.0000
 27 H      0.9152     1.0000     0.0848     0.9928     0.9928    -0.0000
 28 H      0.9120     1.0000     0.0880     0.9923     0.9923     0.0000
 29 H      0.9140     1.0000     0.0860     0.9926     0.9926    -0.0000
 30 H      0.9138     1.0000     0.0862     0.9926     0.9926     0.0000
 31 H      0.9141     1.0000     0.0859     0.9926     0.9926    -0.0000
 32 H      0.9120     1.0000     0.0880     0.9923     0.9923    -0.0000

  Mayer bond orders larger than 0.100000
B(  0-H ,  1-C ) :   0.9429 B(  1-C ,  2-C ) :   0.9811 B(  1-C ,  3-C ) :   0.8967 
B(  1-C ,  6-C ) :   0.9756 B(  2-C , 20-H ) :   0.9746 B(  2-C , 21-H ) :   0.9760 
B(  2-C , 22-H ) :   0.9768 B(  3-C ,  4-O ) :   1.0891 B(  3-C ,  5-O ) :   1.8741 
B(  4-O ,  5-O ) :   0.2611 B(  4-O , 23-H ) :   0.8894 B(  6-C ,  7-C ) :   1.4099 
B(  6-C ,  9-C ) :   0.1072 B(  6-C , 11-C ) :   1.3942 B(  7-C ,  8-C ) :   1.3815 
B(  7-C , 10-C ) :   0.1084 B(  7-C , 24-H ) :   0.9551 B(  8-C ,  9-C ) :   1.3825 
B(  8-C , 11-C ) :   0.1045 B(  8-C , 12-C ) :   0.9770 B(  9-C , 10-C ) :   1.4372 
B(  9-C , 25-H ) :   0.9566 B( 10-C , 11-C ) :   1.4285 B( 10-C , 26-H ) :   0.9600 
B( 11-C , 27-H ) :   0.9589 B( 12-C , 13-O ) :   1.8862 B( 12-C , 14-C ) :   0.9813 
B( 14-C , 15-C ) :   1.3836 B( 14-C , 17-C ) :   0.1055 B( 14-C , 19-C ) :   1.3779 
B( 15-C , 16-C ) :   1.4390 B( 15-C , 18-C ) :   0.1118 B( 15-C , 28-H ) :   0.9564 
B( 16-C , 17-C ) :   1.4254 B( 16-C , 19-C ) :   0.1113 B( 16-C , 29-H ) :   0.9604 
B( 17-C , 18-C ) :   1.4240 B( 17-C , 30-H ) :   0.9606 B( 18-C , 19-C ) :   1.4410 
B( 18-C , 31-H ) :   0.9603 B( 19-C , 32-H ) :   0.9565 

-------
TIMINGS
-------

Total SCF time: 0 days 0 hours 0 min 16 sec 

Total time                  ....      16.711 sec
Sum of individual times     ....      16.526 sec  ( 98.9%)

Fock matrix formation       ....      15.234 sec  ( 91.2%)
  Split-RI-J                ....       3.380 sec  ( 22.2% of F)
  XC integration            ....       6.465 sec  ( 42.4% of F)
    Basis function eval.    ....       1.988 sec  ( 30.8% of XC)
    Density eval.           ....       2.169 sec  ( 33.5% of XC)
    XC-Functional eval.     ....       1.000 sec  ( 15.5% of XC)
    XC-Potential eval.      ....       0.950 sec  ( 14.7% of XC)
Diagonalization             ....       0.004 sec  (  0.0%)
Density matrix formation    ....       0.001 sec  (  0.0%)
Population analysis         ....       0.003 sec  (  0.0%)
Initial guess               ....       0.177 sec  (  1.1%)
Orbital Transformation      ....       0.000 sec  (  0.0%)
Orbital Orthonormalization  ....       0.000 sec  (  0.0%)
DIIS solution               ....       0.003 sec  (  0.0%)
SOSCF solution              ....       0.007 sec  (  0.0%)
Grid generation             ....       1.097 sec  (  6.6%)

Maximum memory used throughout the entire SCF-calculation: 77.5 MB

-------------------------   --------------------
FINAL SINGLE POINT ENERGY      -833.435525385874
-------------------------   --------------------

------------------------------------------------------------------------------
                         ORCA SCF GRADIENT CALCULATION
------------------------------------------------------------------------------

Gradient of the Kohn-Sham DFT energy:
Kohn-Sham wavefunction type      ... RKS
Hartree-Fock exchange scaling    ...    0.000
Number of operators              ...    1
Number of atoms                  ...   33
Basis set dimensions             ...  109
Integral neglect threshold       ... 2.5e-11
Integral primitive cutoff        ... 2.5e-12
SHARK Integral package           ... ON

Nuc. rep. gradient       (SHARK) ... done (  0.0 sec)
HCore & Overlap gradient (SHARK) ... done (  0.1 sec)
RI-J gradient            (SHARK) ... done (  0.8 sec)
Exchange-correlation gradient    ... done

------------------
CARTESIAN GRADIENT
------------------

   1   H   :    0.009962188   -0.004433093   -0.004741656
   2   C   :    0.009836669   -0.012507680   -0.021262613
   3   C   :   -0.011392583    0.008862965   -0.017194941
   4   C   :    0.007279895   -0.035907405   -0.020020876
   5   O   :   -0.003318677    0.054181745    0.075944898
   6   O   :   -0.034404935    0.060948844    0.002175365
   7   C   :   -0.000108220   -0.002001836    0.001192727
   8   C   :    0.002944759    0.004791934    0.001015630
   9   C   :    0.008238501    0.017129722   -0.002461854
  10   C   :    0.004493977   -0.008181039   -0.003567675
  11   C   :    0.002558308   -0.003671187   -0.004802443
  12   C   :    0.006394373   -0.002998627   -0.004268075
  13   C   :    0.012634536    0.025406516    0.001719693
  14   O   :   -0.039960827   -0.076165930   -0.008047213
  15   C   :    0.006485413    0.013308189    0.002933809
  16   C   :   -0.011086957   -0.000245061    0.005731634
  17   C   :   -0.007364711   -0.004714114    0.000199017
  18   C   :   -0.003939570    0.007136999    0.008508329
  19   C   :    0.006723174    0.004834193    0.004139270
  20   C   :    0.006411912    0.007732835    0.001355588
  21   H   :    0.002762344    0.007413359   -0.001129968
  22   H   :    0.002033602   -0.005967637   -0.004753216
  23   H   :   -0.007073041   -0.000673559    0.002967360
  24   H   :    0.023844199   -0.052860425   -0.020298443
  25   H   :   -0.004950545    0.007772725    0.006520385
  26   H   :   -0.003749063   -0.010955185    0.005384537
  27   H   :    0.007254119   -0.008265760   -0.005060127
  28   H   :    0.008743361    0.005243234   -0.005309349
  29   H   :   -0.005595398   -0.007849577   -0.006739886
  30   H   :   -0.011419725   -0.000753605    0.004621513
  31   H   :   -0.003541202    0.007417532    0.008777368
  32   H   :    0.008158009    0.007022001    0.004989491
  33   H   :    0.011146117   -0.001051073   -0.008518279

Difference to translation invariance:
           :    0.0000000000   -0.0000000000   -0.0000000000

Difference to rotation invariance:
           :   -0.0005133207   -0.0001598285   -0.0007912388

Norm of the cartesian gradient     ...    0.1780158596
RMS gradient                       ...    0.0178912671
MAX gradient                       ...    0.0761659297

-------
TIMINGS
-------

Total SCF gradient time            ...        5.231 sec

One electron gradient       ....       0.112 sec  (  2.1%)
RI-J Coulomb gradient       ....       0.795 sec  ( 15.2%)
XC gradient                 ....       3.658 sec  ( 69.9%)
CPCM gradient               ....       0.380 sec  (  7.3%)
   A-Matrix (El+Nuc)        ....       0.073 sec  (  1.4%)
   Potential                ....       0.307 sec  (  5.9%)

Maximum memory used throughout the entire SCFGRAD-calculation: 35.8 MB
------------------------------------------------------------------------------
                         ORCA GEOMETRY RELAXATION STEP
------------------------------------------------------------------------------

Reading the OPT-File                    .... done
Getting information on internals        .... done
Copying old internal coords+grads       .... done
Making the new internal coordinates     .... (new redundants).... done
Validating the new internal coordinates .... (new redundants).... done
Calculating the B-matrix                .... done
Calculating the G,G- and P matrices     .... done
Transforming gradient to internals      .... done
Projecting the internal gradient        .... done
Number of atoms                         ....  33
Number of internal coordinates          .... 169
Current Energy                          ....  -833.435525386 Eh
Current gradient norm                   ....     0.178015860 Eh/bohr
Maximum allowed component of the step   ....  0.300
Current trust radius                    ....  0.300
Evaluating the initial hessian          ....  (Almloef) done
Projecting the Hessian                  .... done
Forming the augmented Hessian           .... done
Diagonalizing the augmented Hessian     .... done
Last element of RFO vector              ....  0.951532100
Lowest eigenvalues of augmented Hessian:
 -0.053454559  0.001001505  0.010623669  0.011260824  0.012252092
Length of the computed step             ....  0.323215000
Warning: the length of the step is outside the trust region - taking restricted step instead
The input lambda is                     ....    -0.053455
   iter:   1  x=   -0.074968  g=    0.672497 f(x)=     0.014468
   iter:   2  x=   -0.080354  g=    0.466346 f(x)=     0.002512
   iter:   3  x=   -0.080558  g=    0.434405 f(x)=     0.000088
   iter:   4  x=   -0.080558  g=    0.433295 f(x)=     0.000000
[...]
  58   2.0000      -0.241481        -6.5710 
  59   2.0000      -0.221715        -6.0332 
  60   2.0000      -0.175637        -4.7793 
  61   2.0000      -0.173705        -4.7268 
  62   2.0000      -0.172019        -4.6809 
  63   2.0000      -0.164369        -4.4727 
  64   2.0000      -0.137537        -3.7426 
  65   2.0000      -0.101975        -2.7749 
  66   2.0000      -0.100888        -2.7453 
  67   0.0000      -0.004719        -0.1284 
  68   0.0000       0.042757         1.1635 
  69   0.0000       0.046189         1.2569 
  70   0.0000       0.052960         1.4411 
  71   0.0000       0.073124         1.9898 
  72   0.0000       0.098512         2.6806 
  73   0.0000       0.188389         5.1263 
  74   0.0000       0.210393         5.7251 
  75   0.0000       0.242241         6.5917 
  76   0.0000       0.264387         7.1943 
  77   0.0000       0.282659         7.6915 
  78   0.0000       0.294227         8.0063 
  79   0.0000       0.325658         8.8616 
  80   0.0000       0.335968         9.1422 
  81   0.0000       0.351235         9.5576 
  82   0.0000       0.355885         9.6841 
  83   0.0000       0.361785         9.8447 
  84   0.0000       0.379423        10.3246 
  85   0.0000       0.385169        10.4810 
  86   0.0000       0.388664        10.5761 
  87   0.0000       0.393124        10.6974 
  88   0.0000       0.397871        10.8266 
  89   0.0000       0.404836        11.0161 
  90   0.0000       0.407076        11.0771 
  91   0.0000       0.419344        11.4109 
  92   0.0000       0.446557        12.1514 
  93   0.0000       0.455651        12.3989 
  94   0.0000       0.464414        12.6373 
  95   0.0000       0.477736        12.9999 
  96   0.0000       0.514873        14.0104 
  97   0.0000       0.524190        14.2639 
  98   0.0000       0.538457        14.6522 
  99   0.0000       0.543304        14.7840 
 100   0.0000       0.545638        14.8476 
 101   0.0000       0.547759        14.9053 
 102   0.0000       0.568477        15.4691 
 103   0.0000       0.574159        15.6237 
 104   0.0000       0.597830        16.2678 
 105   0.0000       0.693229        18.8637 
 106   0.0000       0.699383        19.0312 
 107   0.0000       0.730485        19.8775 
 108   0.0000       0.740627        20.1535 

                    ********************************
                    * MULLIKEN POPULATION ANALYSIS *
                    ********************************

-----------------------
MULLIKEN ATOMIC CHARGES
-----------------------
   0 H :    0.086575
   1 C :   -0.070101
   2 C :   -0.196879
   3 C :    0.176917
   4 O :   -0.202878
   5 O :   -0.214258
   6 C :   -0.023429
   7 C :   -0.076097
   8 C :   -0.023591
   9 C :   -0.071307
  10 C :   -0.076163
  11 C :   -0.073555
  12 C :    0.129488
  13 O :   -0.174068
  14 C :   -0.025144
  15 C :   -0.072032
  16 C :   -0.077006
  17 C :   -0.072651
  18 C :   -0.076596
  19 C :   -0.073994
  20 H :    0.077431
  21 H :    0.075597
  22 H :    0.074531
  23 H :    0.208266
  24 H :    0.087269
  25 H :    0.086474
  26 H :    0.086764
  27 H :    0.086001
  28 H :    0.084811
  29 H :    0.084525
  30 H :    0.084927
  31 H :    0.084483
  32 H :    0.085690
Sum of atomic charges:   -0.0000000

--------------------------------
MULLIKEN REDUCED ORBITAL CHARGES
--------------------------------
  0 H s       :     0.913425  s :     0.913425
  1 C s       :     3.211368  s :     3.211368
      pz      :     0.969722  p :     2.858733
      px      :     0.976141
      py      :     0.912869
  2 C s       :     3.202331  s :     3.202331
      pz      :     1.012153  p :     2.994548
      px      :     0.967356
      py      :     1.015039
  3 C s       :     3.166063  s :     3.166063
      pz      :     0.894105  p :     2.657020
      px      :     0.938646
      py      :     0.824269
  4 O s       :     3.877460  s :     3.877460
      pz      :     1.504461  p :     4.325418
      px      :     1.641287
      py      :     1.179670
  5 O s       :     3.898352  s :     3.898352
      pz      :     1.658731  p :     4.315907
      px      :     1.408217
      py      :     1.248959
  6 C s       :     3.166522  s :     3.166522
      pz      :     0.972513  p :     2.856907
      px      :     0.960953
      py      :     0.923441
  7 C s       :     3.169770  s :     3.169770
      pz      :     0.975910  p :     2.906327
      px      :     0.971698
      py      :     0.958718
  8 C s       :     3.167405  s :     3.167405
      pz      :     0.971414  p :     2.856186
      px      :     0.949621
      py      :     0.935150
  9 C s       :     3.167248  s :     3.167248
      pz      :     0.966295  p :     2.904059
      px      :     0.960590
      py      :     0.977174
 10 C s       :     3.162514  s :     3.162514
      pz      :     0.976079  p :     2.913649
      px      :     0.977170
      py      :     0.960400
 11 C s       :     3.169213  s :     3.169213
      pz      :     0.983859  p :     2.904342
      px      :     0.980409
      py      :     0.940073
 12 C s       :     3.176035  s :     3.176035
      pz      :     0.936381  p :     2.694477
      px      :     0.915038
      py      :     0.843058
 13 O s       :     3.903981  s :     3.903981
      pz      :     1.557994  p :     4.270086
      px      :     1.439476
      py      :     1.272616
 14 C s       :     3.167049  s :     3.167049
      pz      :     0.963651  p :     2.858095
      px      :     0.941112
      py      :     0.953332
 15 C s       :     3.167238  s :     3.167238
      pz      :     0.966952  p :     2.904794
      px      :     0.958045
      py      :     0.979797
 16 C s       :     3.162613  s :     3.162613
      pz      :     0.969062  p :     2.914393
      px      :     0.980118
      py      :     0.965213
 17 C s       :     3.165780  s :     3.165780
      pz      :     0.983047  p :     2.906871
      px      :     0.947242
      py      :     0.976582
 18 C s       :     3.162718  s :     3.162718
      pz      :     0.972254  p :     2.913877
      px      :     0.958564
      py      :     0.983059
 19 C s       :     3.167382  s :     3.167382
      pz      :     0.968187  p :     2.906611
      px      :     0.981859
      py      :     0.956565
 20 H s       :     0.922569  s :     0.922569
 21 H s       :     0.924403  s :     0.924403
 22 H s       :     0.925469  s :     0.925469
 23 H s       :     0.791734  s :     0.791734
 24 H s       :     0.912731  s :     0.912731
 25 H s       :     0.913526  s :     0.913526
 26 H s       :     0.913236  s :     0.913236
 27 H s       :     0.913999  s :     0.913999
 28 H s       :     0.915189  s :     0.915189
 29 H s       :     0.915475  s :     0.915475
 30 H s       :     0.915073  s :     0.915073
 31 H s       :     0.915517  s :     0.915517
 32 H s       :     0.914310  s :     0.914310


                     *******************************
                     * LOEWDIN POPULATION ANALYSIS *
                     *******************************

----------------------
LOEWDIN ATOMIC CHARGES
----------------------
   0 H :    0.048554
   1 C :   -0.035060
   2 C :   -0.100501
   3 C :    0.107190
   4 O :   -0.122778
   5 O :   -0.166216
   6 C :   -0.014944
   7 C :   -0.043049
   8 C :   -0.027322
   9 C :   -0.035330
  10 C :   -0.039701
  11 C :   -0.039055
  12 C :    0.095930
  13 O :   -0.124520
  14 C :   -0.029055
  15 C :   -0.036128
  16 C :   -0.040723
  17 C :   -0.034483
  18 C :   -0.040625
  19 C :   -0.037949
  20 H :    0.043131
  21 H :    0.041406
  22 H :    0.040632
  23 H :    0.156949
  24 H :    0.049922
  25 H :    0.048622
  26 H :    0.049076
  27 H :    0.048397
  28 H :    0.047283
  29 H :    0.047243
  30 H :    0.047461
  31 H :    0.047195
  32 H :    0.048449

-------------------------------
LOEWDIN REDUCED ORBITAL CHARGES
-------------------------------
  0 H s       :     0.951446  s :     0.951446
  1 C s       :     3.073118  s :     3.073118
      pz      :     1.002032  p :     2.961942
      px      :     1.003335
      py      :     0.956575
  2 C s       :     3.026095  s :     3.026095
      pz      :     1.036028  p :     3.074406
      px      :     1.000218
      py      :     1.038160
  3 C s       :     3.124109  s :     3.124109
      pz      :     0.923852  p :     2.768702
      px      :     0.950975
      py      :     0.893875
  4 O s       :     3.759987  s :     3.759987
      pz      :     1.519164  p :     4.362791
      px      :     1.647442
      py      :     1.196185
  5 O s       :     3.793976  s :     3.793976
      pz      :     1.663233  p :     4.372240
      px      :     1.411166
      py      :     1.297841
  6 C s       :     3.058757  s :     3.058757
      pz      :     0.994319  p :     2.956187
      px      :     0.993155
      py      :     0.968714
  7 C s       :     3.048077  s :     3.048077
      pz      :     0.997197  p :     2.994972
      px      :     0.996915
      py      :     1.000859
  8 C s       :     3.065572  s :     3.065572
      pz      :     0.992815  p :     2.961751
      px      :     0.980937
      py      :     0.987999
  9 C s       :     3.044034  s :     3.044034
      pz      :     0.988308  p :     2.991296
      px      :     0.994400
      py      :     1.008588
 10 C s       :     3.038367  s :     3.038367
      pz      :     0.996574  p :     3.001335
      px      :     1.002000
      py      :     1.002760
 11 C s       :     3.046549  s :     3.046549
      pz      :     0.997034  p :     2.992506
      px      :     1.001006
      py      :     0.994466
 12 C s       :     3.105133  s :     3.105133
      pz      :     0.955784  p :     2.798938
      px      :     0.941087
      py      :     0.902066
 13 O s       :     3.803247  s :     3.803247
      pz      :     1.561536  p :     4.321272
      px      :     1.449936
      py      :     1.309800
 14 C s       :     3.065357  s :     3.065357
      pz      :     0.990348  p :     2.963698
      px      :     0.990338
      py      :     0.983012
 15 C s       :     3.044121  s :     3.044121
      pz      :     0.992190  p :     2.992007
      px      :     1.000678
      py      :     0.999139
 16 C s       :     3.038616  s :     3.038616
      pz      :     0.996441  p :     3.002107
      px      :     1.009026
      py      :     0.996640
 17 C s       :     3.041231  s :     3.041231
      pz      :     0.998778  p :     2.993252
      px      :     0.997028
      py      :     0.997446
 18 C s       :     3.038904  s :     3.038904
      pz      :     0.998063  p :     3.001721
      px      :     1.001283
      py      :     1.002374
 19 C s       :     3.044094  s :     3.044094
      pz      :     0.995721  p :     2.993855
      px      :     1.010849
      py      :     0.987284
 20 H s       :     0.956869  s :     0.956869
 21 H s       :     0.958594  s :     0.958594
 22 H s       :     0.959368  s :     0.959368
 23 H s       :     0.843051  s :     0.843051
 24 H s       :     0.950078  s :     0.950078
 25 H s       :     0.951378  s :     0.951378
 26 H s       :     0.950924  s :     0.950924
 27 H s       :     0.951603  s :     0.951603
 28 H s       :     0.952717  s :     0.952717
 29 H s       :     0.952757  s :     0.952757
 30 H s       :     0.952539  s :     0.952539
 31 H s       :     0.952805  s :     0.952805
 32 H s       :     0.951551  s :     0.951551


                      *****************************
                      * MAYER POPULATION ANALYSIS *
                      *****************************

  NA   - Mulliken gross atomic population
  ZA   - Total nuclear charge
  QA   - Mulliken gross atomic charge
  VA   - Mayer's total valence
  BVA  - Mayer's bonded valence
  FA   - Mayer's free valence

  ATOM       NA         ZA         QA         VA         BVA        FA
  0 H      0.9134     1.0000     0.0866     0.9925     0.9925    -0.0000
  1 C      6.0701     6.0000    -0.0701     3.9436     3.9436    -0.0000
  2 C      6.1969     6.0000    -0.1969     3.9513     3.9513    -0.0000
  3 C      5.8231     6.0000     0.1769     3.8880     3.8880    -0.0000
  4 O      8.2029     8.0000    -0.2029     2.3257     2.3257    -0.0000
  5 O      8.2143     8.0000    -0.2143     2.2900     2.2900    -0.0000
  6 C      6.0234     6.0000    -0.0234     3.9613     3.9613    -0.0000
  7 C      6.0761     6.0000    -0.0761     3.9613     3.9613    -0.0000
  8 C      6.0236     6.0000    -0.0236     3.9607     3.9607    -0.0000
  9 C      6.0713     6.0000    -0.0713     3.9624     3.9624    -0.0000
 10 C      6.0762     6.0000    -0.0762     3.9645     3.9645    -0.0000
 11 C      6.0736     6.0000    -0.0736     3.9619     3.9619    -0.0000
 12 C      5.8705     6.0000     0.1295     3.9072     3.9072     0.0000
 13 O      8.1741     8.0000    -0.1741     2.2285     2.2285     0.0000
 14 C      6.0251     6.0000    -0.0251     3.9607     3.9607     0.0000
 15 C      6.0720     6.0000    -0.0720     3.9626     3.9626    -0.0000
 16 C      6.0770     6.0000    -0.0770     3.9646     3.9646    -0.0000
 17 C      6.0727     6.0000    -0.0727     3.9639     3.9639    -0.0000
 18 C      6.0766     6.0000    -0.0766     3.9645     3.9645     0.0000
 19 C      6.0740     6.0000    -0.0740     3.9626     3.9626    -0.0000
 20 H      0.9226     1.0000     0.0774     0.9940     0.9940    -0.0000
 21 H      0.9244     1.0000     0.0756     0.9943     0.9943    -0.0000
 22 H      0.9255     1.0000     0.0745     0.9944     0.9944    -0.0000
 23 H      0.7917     1.0000     0.2083     0.9566     0.9566    -0.0000
 24 H      0.9127     1.0000     0.0873     0.9924     0.9924    -0.0000
 25 H      0.9135     1.0000     0.0865     0.9925     0.9925    -0.0000
 26 H      0.9132     1.0000     0.0868     0.9925     0.9925     0.0000
 27 H      0.9140     1.0000     0.0860     0.9926     0.9926    -0.0000
 28 H      0.9152     1.0000     0.0848     0.9928     0.9928    -0.0000
 29 H      0.9155     1.0000     0.0845     0.9929     0.9929     0.0000
 30 H      0.9151     1.0000     0.0849     0.9928     0.9928    -0.0000
 31 H      0.9155     1.0000     0.0845     0.9929     0.9929    -0.0000
 32 H      0.9143     1.0000     0.0857     0.9927     0.9927    -0.0000

  Mayer bond orders larger than 0.100000
B(  0-H ,  1-C ) :   0.9473 B(  1-C ,  2-C ) :   0.9783 B(  1-C ,  3-C ) :   0.8596 
B(  1-C ,  6-C ) :   0.9794 B(  2-C , 20-H ) :   0.9728 B(  2-C , 21-H ) :   0.9758 
B(  2-C , 22-H ) :   0.9760 B(  3-C ,  4-O ) :   1.0808 B(  3-C ,  5-O ) :   1.8927 
B(  4-O ,  5-O ) :   0.2527 B(  4-O , 23-H ) :   0.8940 B(  6-C ,  7-C ) :   1.3829 
B(  6-C ,  9-C ) :   0.1047 B(  6-C , 11-C ) :   1.3841 B(  7-C ,  8-C ) :   1.3936 
B(  7-C , 10-C ) :   0.1065 B(  7-C , 24-H ) :   0.9526 B(  8-C ,  9-C ) :   1.3686 
B(  8-C , 11-C ) :   0.1029 B(  8-C , 12-C ) :   0.9553 B(  9-C , 10-C ) :   1.4412 
B(  9-C , 25-H ) :   0.9560 B( 10-C , 11-C ) :   1.4187 B( 10-C , 26-H ) :   0.9584 
B( 11-C , 27-H ) :   0.9571 B( 12-C , 13-O ) :   1.9031 B( 12-C , 14-C ) :   0.9602 
B( 14-C , 15-C ) :   1.3759 B( 14-C , 17-C ) :   0.1075 B( 14-C , 19-C ) :   1.3792 
B( 15-C , 16-C ) :   1.4423 B( 15-C , 18-C ) :   0.1107 B( 15-C , 28-H ) :   0.9561 
B( 16-C , 17-C ) :   1.4163 B( 16-C , 19-C ) :   0.1095 B( 16-C , 29-H ) :   0.9591 
B( 17-C , 18-C ) :   1.4229 B( 17-C , 30-H ) :   0.9597 B( 18-C , 19-C ) :   1.4343 
B( 18-C , 31-H ) :   0.9592 B( 19-C , 32-H ) :   0.9555 

-------
TIMINGS
-------

Total SCF time: 0 days 0 hours 0 min 9 sec 

Total time                  ....       9.444 sec
Sum of individual times     ....       9.251 sec  ( 98.0%)

Fock matrix formation       ....       8.356 sec  ( 88.5%)
  Split-RI-J                ....       1.817 sec  ( 21.7% of F)
  XC integration            ....       3.537 sec  ( 42.3% of F)
    Basis function eval.    ....       1.102 sec  ( 31.2% of XC)
    Density eval.           ....       1.196 sec  ( 33.8% of XC)
    XC-Functional eval.     ....       0.636 sec  ( 18.0% of XC)
    XC-Potential eval.      ....       0.374 sec  ( 10.6% of XC)
Diagonalization             ....       0.001 sec  (  0.0%)
Density matrix formation    ....       0.001 sec  (  0.0%)
Population analysis         ....       0.012 sec  (  0.1%)
Initial guess               ....       0.002 sec  (  0.0%)
Orbital Transformation      ....       0.000 sec  (  0.0%)
Orbital Orthonormalization  ....       0.001 sec  (  0.0%)
DIIS solution               ....       0.000 sec  (  0.0%)
SOSCF solution              ....       0.005 sec  (  0.1%)
Grid generation             ....       0.874 sec  (  9.3%)

Maximum memory used throughout the entire SCF-calculation: 76.8 MB

-------------------------   --------------------
FINAL SINGLE POINT ENERGY      -833.471232687769
-------------------------   --------------------

                                *** OPTIMIZATION RUN DONE ***

                            ***************************************
                            *     ORCA property calculations      *
                            ***************************************

                                    ---------------------
                                    Active property flags
                                    ---------------------
   (+) Dipole Moment


------------------------------------------------------------------------------
                       ORCA ELECTRIC PROPERTIES CALCULATION
------------------------------------------------------------------------------

Dipole Moment Calculation                       ... on
Quadrupole Moment Calculation                   ... off
Polarizability Calculation                      ... off
GBWName                                         ... Dexketoprofen\Dexketoprofen_TPSS_STO-3G\Dexketoprofen_TPSS_STO-3G.orcainp.gbw
Electron density                                ... Dexketoprofen\Dexketoprofen_TPSS_STO-3G\Dexketoprofen_TPSS_STO-3G.orcainp.scfp
The origin for moment calculation is the CENTER OF MASS  = ( 7.077405,  2.827940 -4.004016)

-------------
DIPOLE MOMENT
-------------
                                X             Y             Z
Electronic contribution:     -1.18390       4.08748      -3.78182
Nuclear contribution   :      0.93571      -3.58968       4.09892
                        -----------------------------------------
Total Dipole Moment    :     -0.24819       0.49779       0.31710
                        -----------------------------------------
Magnitude (a.u.)       :      0.64027
Magnitude (Debye)      :      1.62745



--------------------
Rotational spectrum 
--------------------
 
Rotational constants in cm-1:     0.016340     0.008702     0.006474 
Rotational constants in MHz :   489.855225   260.876911   194.080976 

 Dipole components along the rotational axes: 
x,y,z [a.u.] :    -0.198359    -0.601633     0.092962 
x,y,z [Debye]:    -0.504188    -1.529229     0.236290 

 

Timings for individual modules:

Sum of individual times         ...      414.871 sec (=   6.915 min)
GTO integral calculation        ...        2.538 sec (=   0.042 min)   0.6 %
SCF iterations                  ...      294.551 sec (=   4.909 min)  71.0 %
SCF Gradient evaluation         ...      116.226 sec (=   1.937 min)  28.0 %
Geometry relaxation             ...        1.556 sec (=   0.026 min)   0.4 %
                             ****ORCA TERMINATED NORMALLY****
TOTAL RUN TIME: 0 days 0 hours 6 minutes 56 seconds 678 msec
