
                                 *****************
                                 * O   R   C   A *
                                 *****************

                                            #,                                       
                                            ###                                      
                                            ####                                     
                                            #####                                    
                                            ######                                   
                                           ########,                                 
                                     ,,################,,,,,                         
                               ,,#################################,,                 
                          ,,##########################################,,             
                       ,#########################################, ''#####,          
                    ,#############################################,,   '####,        
                  ,##################################################,,,,####,       
                ,###########''''           ''''###############################       
              ,#####''   ,,,,##########,,,,          '''####'''          '####       
            ,##' ,,,,###########################,,,                        '##       
           ' ,,###''''                  '''############,,,                           
         ,,##''                                '''############,,,,        ,,,,,,###''
      ,#''                                            '''#######################'''  
     '                                                          ''''####''''         
             ,#######,   #######,   ,#######,      ##                                
            ,#'     '#,  ##    ##  ,#'     '#,    #''#        ######   ,####,        
            ##       ##  ##   ,#'  ##            #'  '#       #        #'  '#        
            ##       ##  #######   ##           ,######,      #####,   #    #        
            '#,     ,#'  ##    ##  '#,     ,#' ,#      #,         ##   #,  ,#        
             '#######'   ##     ##  '#######'  #'      '#     #####' # '####'        



                  #######################################################
                  #                        -***-                        #
                  #          Department of theory and spectroscopy      #
                  #    Directorship and core code : Frank Neese         #
                  #        Max Planck Institute fuer Kohlenforschung    #
                  #                Kaiser Wilhelm Platz 1               #
                  #                 D-45470 Muelheim/Ruhr               #
                  #                      Germany                        #
                  #                                                     #
                  #                  All rights reserved                #
                  #                        -***-                        #
                  #######################################################



                         Program Version 5.0.4 -  RELEASE  -

 With contributions from (in alphabetic order):
   Daniel Aravena         : Magnetic Suceptibility
   Michael Atanasov       : Ab Initio Ligand Field Theory (pilot matlab implementation)
   Alexander A. Auer      : GIAO ZORA, VPT2 properties, NMR spectrum
   Ute Becker             : Parallelization
   Giovanni Bistoni       : ED, misc. LED, open-shell LED, HFLD
   Martin Brehm           : Molecular dynamics
   Dmytro Bykov           : SCF Hessian
   Vijay G. Chilkuri      : MRCI spin determinant printing, contributions to CSF-ICE
   Dipayan Datta          : RHF DLPNO-CCSD density
   Achintya Kumar Dutta   : EOM-CC, STEOM-CC
   Dmitry Ganyushin       : Spin-Orbit,Spin-Spin,Magnetic field MRCI
   Miquel Garcia          : C-PCM and meta-GGA Hessian, CC/C-PCM, Gaussian charge scheme
   Yang Guo               : DLPNO-NEVPT2, F12-NEVPT2, CIM, IAO-localization
   Andreas Hansen         : Spin unrestricted coupled pair/coupled cluster methods
   Benjamin Helmich-Paris : MC-RPA, TRAH-SCF, COSX integrals
   Lee Huntington         : MR-EOM, pCC
   Robert Izsak           : Overlap fitted RIJCOSX, COSX-SCS-MP3, EOM
   Marcus Kettner         : VPT2
   Christian Kollmar      : KDIIS, OOCD, Brueckner-CCSD(T), CCSD density, CASPT2, CASPT2-K
   Simone Kossmann        : Meta GGA functionals, TD-DFT gradient, OOMP2, MP2 Hessian
   Martin Krupicka        : Initial AUTO-CI
   Lucas Lang             : DCDCAS
   Marvin Lechner         : AUTO-CI (C++ implementation), FIC-MRCC
   Dagmar Lenk            : GEPOL surface, SMD
   Dimitrios Liakos       : Extrapolation schemes; Compound Job, initial MDCI parallelization
   Dimitrios Manganas     : Further ROCIS development; embedding schemes
   Dimitrios Pantazis     : SARC Basis sets
   Anastasios Papadopoulos: AUTO-CI, single reference methods and gradients
   Taras Petrenko         : DFT Hessian,TD-DFT gradient, ASA, ECA, R-Raman, ABS, FL, XAS/XES, NRVS
   Peter Pinski           : DLPNO-MP2, DLPNO-MP2 Gradient
   Christoph Reimann      : Effective Core Potentials
   Marius Retegan         : Local ZFS, SOC
   Christoph Riplinger    : Optimizer, TS searches, QM/MM, DLPNO-CCSD(T), (RO)-DLPNO pert. Triples
   Tobias Risthaus        : Range-separated hybrids, TD-DFT gradient, RPA, STAB
   Michael Roemelt        : Original ROCIS implementation
   Masaaki Saitow         : Open-shell DLPNO-CCSD energy and density
   Barbara Sandhoefer     : DKH picture change effects
   Avijit Sen             : IP-ROCIS
   Kantharuban Sivalingam : CASSCF convergence, NEVPT2, FIC-MRCI
   Bernardo de Souza      : ESD, SOC TD-DFT
   Georgi Stoychev        : AutoAux, RI-MP2 NMR, DLPNO-MP2 response
   Willem Van den Heuvel  : Paramagnetic NMR
   Boris Wezisla          : Elementary symmetry handling
   Frank Wennmohs         : Technical directorship


 We gratefully acknowledge several colleagues who have allowed us to
 interface, adapt or use parts of their codes:
   Stefan Grimme, W. Hujo, H. Kruse, P. Pracht,  : VdW corrections, initial TS optimization,
                  C. Bannwarth, S. Ehlert          DFT functionals, gCP, sTDA/sTD-DF
   Ed Valeev, F. Pavosevic, A. Kumar             : LibInt (2-el integral package), F12 methods
   Garnet Chan, S. Sharma, J. Yang, R. Olivares  : DMRG
   Ulf Ekstrom                                   : XCFun DFT Library
   Mihaly Kallay                                 : mrcc  (arbitrary order and MRCC methods)
   Jiri Pittner, Ondrej Demel                    : Mk-CCSD
   Frank Weinhold                                : gennbo (NPA and NBO analysis)
   Christopher J. Cramer and Donald G. Truhlar   : smd solvation model
   Lars Goerigk                                  : TD-DFT with DH, B97 family of functionals
   V. Asgeirsson, H. Jonsson                     : NEB implementation
   FAccTs GmbH                                   : IRC, NEB, NEB-TS, DLPNO-Multilevel, CI-OPT
                                                   MM, QMMM, 2- and 3-layer-ONIOM, Crystal-QMMM,
                                                   LR-CPCM, SF, NACMEs, symmetry and pop. for TD-DFT,
                                                   nearIR, NL-DFT gradient (VV10), updates on ESD,
                                                   ML-optimized integration grids
   S Lehtola, MJT Oliveira, MAL Marques          : LibXC Library
   Liviu Ungur et al                             : ANISO software


 Your calculation uses the libint2 library for the computation of 2-el integrals
 For citations please refer to: http://libint.valeyev.net

 Your ORCA version has been built with support for libXC version: 5.1.0
 For citations please refer to: https://tddft.org/programs/libxc/

 This ORCA versions uses:
   CBLAS   interface :  Fast vector & matrix operations
   LAPACKE interface :  Fast linear algebra routines
   Shared memory     :  Shared parallel matrices


================================================================================

----- Orbital basis set information -----
Your calculation utilizes the basis: STO-3G
   H-Ne       : W. J. Hehre, R. F. Stewart and J. A. Pople, J. Chem. Phys. 2657 (1969).
   Na-Ar      : W. J. Hehre, R. Ditchfield, R. F. Stewart and J. A. Pople, J. Chem. Phys. 2769 (1970).
   K,Ca,Ga-Kr : W. J. Pietro, B. A. Levy, W. J. Hehre and R. F. Stewart, J. Am. Chem. Soc. 19, 2225 (1980).
   Sc-Zn,Y-Cd : W. J. Pietro and W. J. Hehre, J. Comp. Chem. 4, 241 (1983).

----- AuxJ basis set information -----
Your calculation utilizes the auxiliary basis: def2/J
   F. Weigend, Phys. Chem. Chem. Phys. 8, 1057 (2006).

================================================================================
                                        WARNINGS
                       Please study these warnings very carefully!
================================================================================


WARNING: Geometry Optimization
  ===> : Switching off AutoStart
         For restart on a previous wavefunction, please use MOREAD

INFO   : the flag for use of the SHARK integral package has been found!

================================================================================
                                       INPUT FILE
================================================================================
NAME = Ibuprofeno\Ibuprofeno_PBE_STO-3G\Ibuprofeno_PBE_STO-3G.orcainp
|  1> # ORCA input file
|  2> # 
|  3> !PBE STO-3G Opt CPCM(WATER)
|  4> 
|  5> * xyz 0 1
|  6>    C        2.67569         1.76515         3.50557
|  7>    C        2.36944         0.52730         2.66006
|  8>    C        0.85304         0.35239         2.53184
|  9>    C        3.01280         0.61958         1.26293
| 10>    C        4.52308         0.73287         1.26152
| 11>    C        5.32588        -0.26385         1.83075
| 12>    C        6.72138        -0.18302         1.76021
| 13>    C        7.34776         0.88750         1.10340
| 14>    C        6.53877         1.90312         0.57006
| 15>    C        5.14455         1.82624         0.64881
| 16>    C        8.85935         0.87626         0.89416
| 17>    C        9.16989         0.86797        -0.60844
| 18>    C        9.67830         1.97118         1.57297
| 19>    O        9.02053         2.78926         2.42048
| 20>    O       10.88237         2.10266         1.39315
| 21>    H        2.20498         1.68559         4.49092
| 22>    H        2.30498         2.67554         3.02336
| 23>    H        3.75199         1.87974         3.66775
| 24>    H        2.76094        -0.35184         3.18620
| 25>    H        0.40084         1.17948         1.97345
| 26>    H        0.38024         0.31473         3.51918
| 27>    H        0.61040        -0.58007         2.01109
| 28>    H        2.58137         1.47469         0.72497
| 29>    H        2.74568        -0.26733         0.67243
| 30>    H        4.87092        -1.12910         2.30841
| 31>    H        7.30958        -0.99192         2.19026
| 32>    H        6.98078         2.75448         0.05361
| 33>    H        4.54773         2.61497         0.19900
| 34>    H        9.24509        -0.06091         1.31903
| 35>    H        8.79507         1.76990        -1.10604
| 36>    H        8.71091         0.00118        -1.09752
| 37>    H       10.24776         0.82625        -0.79396
| 38>    H        8.06926         2.59022         2.53077
| 39> *
| 40> 
| 41>                          ****END OF INPUT****
================================================================================

                       *****************************
                       * Geometry Optimization Run *
                       *****************************

Geometry optimization settings:
Update method            Update   .... BFGS
Choice of coordinates    CoordSys .... Z-matrix Internals
Initial Hessian          InHess   .... Almoef's Model

Convergence Tolerances:
Energy Change            TolE     ....  5.0000e-06 Eh
Max. Gradient            TolMAXG  ....  3.0000e-04 Eh/bohr
RMS Gradient             TolRMSG  ....  1.0000e-04 Eh/bohr
Max. Displacement        TolMAXD  ....  4.0000e-03 bohr
RMS Displacement         TolRMSD  ....  2.0000e-03 bohr
Strict Convergence                ....  False
------------------------------------------------------------------------------
                        ORCA OPTIMIZATION COORDINATE SETUP
------------------------------------------------------------------------------

The optimization will be done in new redundant internal coordinates
Making redundant internal coordinates   ...  (new redundants) done
Evaluating the initial hessian          ...  (Almloef) done
Evaluating the coordinates              ...  done
Calculating the B-matrix                .... done
Calculating the G-matrix                .... done
Diagonalizing the G-matrix              .... done
Small eigenvalue found = 1.026e-02
Small eigenvalue found = 2.000e-02
Small eigenvalue found = 2.503e-02
Small eigenvalue found = 2.962e-02
The first mode is                       ....   79
The number of degrees of freedom        ....   93

    -----------------------------------------------------------------
                    Redundant Internal Coordinates


    -----------------------------------------------------------------
         Definition                    Initial Value    Approx d2E/dq
    -----------------------------------------------------------------
      1. B(C   1,C   0)                  1.5300         0.373553   
      2. B(C   2,C   1)                  1.5318         0.371072   
      3. B(C   3,C   1)                  1.5409         0.358900   
      4. B(C   4,C   3)                  1.5145         0.395429   
      5. B(C   5,C   4)                  1.4007         0.600713   
      6. B(C   6,C   5)                  1.3996         0.603107   
      7. B(C   7,C   6)                  1.4035         0.594603   
      8. B(C   8,C   7)                  1.4037         0.594109   
      9. B(C   9,C   8)                  1.3986         0.605461   
     10. B(C   9,C   4)                  1.3990         0.604560   
     11. B(C  10,C   7)                  1.5260         0.379043   
     12. B(C  11,C  10)                  1.5344         0.367617   
     13. B(C  12,C  10)                  1.5265         0.378359   
     14. B(O  13,C  12)                  1.3491         0.650217   
     15. B(O  14,C  12)                  1.2245         1.027817   
     16. B(H  15,C   0)                  1.0949         0.353672   
     17. B(H  16,C   0)                  1.0949         0.353702   
     18. B(H  17,C   0)                  1.0945         0.354241   
     19. B(H  18,C   1)                  1.0968         0.351209   
     20. B(H  19,C   2)                  1.0956         0.352754   
     21. B(H  20,C   2)                  1.0954         0.353088   
     22. B(H  21,C   2)                  1.0952         0.353243   
     23. B(H  22,C   3)                  1.0985         0.349004   
     24. B(H  23,C   3)                  1.0985         0.349058   
     25. B(H  24,C   5)                  1.0880         0.362718   
     26. B(H  25,C   6)                  1.0887         0.361840   
     27. B(H  26,C   8)                  1.0895         0.360825   
     28. B(H  27,C   9)                  1.0866         0.364676   
     29. B(H  28,C  10)                  1.0989         0.348507   
     30. B(H  29,C  11)                  1.0962         0.352039   
     31. B(H  30,C  11)                  1.0960         0.352267   
     32. B(H  31,C  11)                  1.0945         0.354177   
     33. B(H  32,H  17)                  4.5207         0.000000   
     34. B(H  32,O  13)                  0.9781         0.486493   
     35. A(C   1,C   0,H  15)          110.6392         0.323358   
     36. A(H  15,C   0,H  17)          107.2791         0.289273   
     37. A(C   1,C   0,H  17)          111.3112         0.323444   
     38. A(H  16,C   0,H  17)          108.1298         0.289277   
     39. A(C   1,C   0,H  16)          111.1962         0.323363   
     40. A(H  15,C   0,H  16)          108.1324         0.289204   
     41. A(C   0,C   1,C   3)          111.6558         0.360871   
     42. A(C   2,C   1,H  18)          107.5765         0.322635   
     43. A(C   2,C   1,C   3)          110.1366         0.360461   
     44. A(C   3,C   1,H  18)          109.5064         0.320878   
     45. A(C   0,C   1,H  18)          108.1767         0.322988   
     46. A(C   0,C   1,C   2)          109.6809         0.362931   
     47. A(C   1,C   2,H  19)          111.4102         0.322868   
     48. A(H  20,C   2,H  21)          107.6791         0.289071   
     49. A(C   1,C   2,H  20)          110.8406         0.322918   
     50. A(H  19,C   2,H  21)          107.9960         0.289028   
     51. A(C   1,C   2,H  21)          110.8745         0.322941   
     52. A(H  19,C   2,H  20)          107.8908         0.289008   
     53. A(C   1,C   3,H  23)          109.7259         0.320556   
     54. A(C   4,C   3,H  22)          109.4481         0.325684   
     55. A(H  22,C   3,H  23)          105.6489         0.288007   
     56. A(C   1,C   3,C   4)          114.9403         0.364395   
     57. A(C   1,C   3,H  22)          109.0662         0.320548   
     58. A(C   4,C   3,H  23)          107.6010         0.325692   
     59. A(C   5,C   4,C   9)          118.6543         0.429657   
     60. A(C   3,C   4,C   5)          121.1934         0.398447   
     61. A(C   3,C   4,C   9)          120.1232         0.398895   
     62. A(C   4,C   5,C   6)          120.6557         0.429471   
     63. A(C   6,C   5,H  24)          119.0107         0.351694   
     64. A(C   4,C   5,H  24)          120.3073         0.351458   
     65. A(C   5,C   6,C   7)          120.8390         0.428684   
     66. A(C   7,C   6,H  25)          120.6948         0.350708   
     67. A(C   5,C   6,H  25)          118.4164         0.351550   
     68. A(C   8,C   7,C  10)          121.6075         0.394731   
     69. A(C   6,C   7,C  10)          120.0414         0.394789   
     70. A(C   6,C   7,C   8)          118.1949         0.427531   
     71. A(C   9,C   8,H  26)          118.3014         0.351615   
     72. A(C   7,C   8,C   9)          120.8885         0.428920   
     73. A(C   7,C   8,H  26)          120.7767         0.350492   
     74. A(C   4,C   9,C   8)          120.6960         0.430264   
     75. A(C   4,C   9,H  27)          120.3069         0.352158   
     76. A(C   8,C   9,H  27)          118.9703         0.352247   
     77. A(C   7,C  10,C  11)          109.5594         0.363255   
     78. A(C  12,C  10,H  28)          104.5635         0.323256   
     79. A(C  11,C  10,H  28)          107.6362         0.321734   
     80. A(C   7,C  10,H  28)          107.5156         0.323352   
     81. A(C  11,C  10,C  12)          109.3151         0.363143   
     82. A(C   7,C  10,C  12)          117.7194         0.365049   
     83. A(H  30,C  11,H  31)          107.8562         0.289085   
     84. A(H  29,C  11,H  31)          106.9273         0.289055   
     85. A(C  10,C  11,H  31)          111.4387         0.322586   
     86. A(H  29,C  11,H  30)          107.7563         0.288811   
     87. A(C  10,C  11,H  30)          110.8867         0.322300   
     88. A(C  10,C  11,H  29)          111.7709         0.322266   
     89. A(O  13,C  12,O  14)          120.4344         0.473671   
     90. A(C  10,C  12,O  14)          122.6318         0.432126   
     91. A(C  10,C  12,O  13)          116.9172         0.398346   
     92. A(C  12,O  13,H  32)          114.9362         0.368914   
     93. D(H  18,C   1,C   0,H  16)    179.9583         0.011142   
     94. D(H  18,C   1,C   0,H  17)     59.3258         0.011142   
     95. D(C   2,C   1,C   0,H  16)    -62.9771         0.011142   
     96. D(C   3,C   1,C   0,H  15)    179.5763         0.011142   
     97. D(C   2,C   1,C   0,H  17)    176.3904         0.011142   
     98. D(C   2,C   1,C   0,H  15)     57.2054         0.011142   
     99. D(C   3,C   1,C   0,H  16)     59.3939         0.011142   
    100. D(C   3,C   1,C   0,H  17)    -61.2386         0.011142   
    101. D(H  18,C   1,C   0,H  15)    -59.8593         0.011142   
    102. D(H  19,C   2,C   1,C   3)    -58.1958         0.011003   
    103. D(H  19,C   2,C   1,H  18)   -177.4850         0.011003   
    104. D(H  21,C   2,C   1,C   0)   -174.6146         0.011003   
    105. D(H  20,C   2,C   1,C   3)   -178.3507         0.011003   
    106. D(H  20,C   2,C   1,H  18)     62.3601         0.011003   
    107. D(H  21,C   2,C   1,H  18)    -57.1741         0.011003   
    108. D(H  21,C   2,C   1,C   3)     62.1151         0.011003   
    109. D(H  19,C   2,C   1,C   0)     65.0745         0.011003   
    110. D(H  20,C   2,C   1,C   0)    -55.0803         0.011003   
    111. D(H  23,C   3,C   1,C   2)    -56.0076         0.010339   
    112. D(H  23,C   3,C   1,C   0)   -178.1169         0.010339   
    113. D(H  22,C   3,C   1,H  18)    177.3839         0.010339   
    114. D(H  22,C   3,C   1,C   2)     59.2771         0.010339   
    115. D(H  22,C   3,C   1,C   0)    -62.8322         0.010339   
    116. D(C   4,C   3,C   1,H  18)    -59.3015         0.010339   
    117. D(C   4,C   3,C   1,C   2)   -177.4083         0.010339   
    118. D(H  23,C   3,C   1,H  18)     62.0992         0.010339   
    119. D(C   4,C   3,C   1,C   0)     60.4824         0.010339   
    120. D(C   9,C   4,C   3,C   1)   -122.1861         0.011617   
    121. D(C   5,C   4,C   3,H  23)    -62.7518         0.011617   
    122. D(C   5,C   4,C   3,H  22)   -177.0905         0.011617   
    123. D(C   5,C   4,C   3,C   1)     59.7987         0.011617   
    124. D(C   9,C   4,C   3,H  23)    115.2633         0.011617   
    125. D(C   9,C   4,C   3,H  22)      0.9247         0.011617   
    126. D(H  24,C   5,C   4,C   9)   -179.6016         0.024880   
    127. D(H  24,C   5,C   4,C   3)     -1.5580         0.024880   
    128. D(C   6,C   5,C   4,C   9)     -1.4823         0.024880   
    129. D(C   6,C   5,C   4,C   3)    176.5613         0.024880   
    130. D(H  25,C   6,C   5,H  24)     -0.1532         0.025089   
    131. D(H  25,C   6,C   5,C   4)   -178.2966         0.025089   
    132. D(C   7,C   6,C   5,C   4)     -0.8450         0.025089   
    133. D(C   7,C   6,C   5,H  24)    177.2984         0.025089   
    134. D(C  10,C   7,C   6,H  25)      4.5584         0.024350   
    135. D(C  10,C   7,C   6,C   5)   -172.8350         0.024350   
    136. D(C   8,C   7,C   6,H  25)   -179.9113         0.024350   
    137. D(C   8,C   7,C   6,C   5)      2.6953         0.024350   
    138. D(H  26,C   8,C   7,C  10)     -4.6654         0.024307   
    139. D(H  26,C   8,C   7,C   6)    179.8780         0.024307   
    140. D(C   9,C   8,C   7,C  10)    173.1948         0.024307   
    141. D(C   9,C   8,C   7,C   6)     -2.2618         0.024307   
    142. D(H  27,C   9,C   8,H  26)     -0.2479         0.025297   
    143. D(H  27,C   9,C   8,C   7)   -178.1599         0.025297   
    144. D(C   4,C   9,C   8,H  26)    177.8781         0.025297   
    145. D(C   4,C   9,C   8,C   7)     -0.0339         0.025297   
    146. D(H  27,C   9,C   4,C   5)   -179.9821         0.025217   
    147. D(H  27,C   9,C   4,C   3)      1.9527         0.025217   
    148. D(C   8,C   9,C   4,C   5)      1.9169         0.025217   
    149. D(C   8,C   9,C   4,C   3)   -176.1482         0.025217   
    150. D(H  28,C  10,C   7,C   6)      0.8215         0.010724   
    151. D(C  12,C  10,C   7,C   8)     67.8217         0.010724   
    152. D(C  12,C  10,C   7,C   6)   -116.8041         0.010724   
    153. D(C  11,C  10,C   7,C   8)    -57.8548         0.010724   
    154. D(H  28,C  10,C   7,C   8)   -174.5527         0.010724   
    155. D(C  11,C  10,C   7,C   6)    117.5194         0.010724   
    156. D(H  31,C  11,C  10,H  28)    -61.4907         0.010812   
    157. D(H  31,C  11,C  10,C   7)   -178.1125         0.010812   
    158. D(H  30,C  11,C  10,H  28)     58.6706         0.010812   
    159. D(H  30,C  11,C  10,C  12)    171.6884         0.010812   
    160. D(H  30,C  11,C  10,C   7)    -57.9512         0.010812   
    161. D(H  29,C  11,C  10,H  28)    178.9284         0.010812   
    162. D(H  31,C  11,C  10,C  12)     51.5272         0.010812   
    163. D(H  29,C  11,C  10,C  12)    -68.0538         0.010812   
    164. D(H  29,C  11,C  10,C   7)     62.3065         0.010812   
    165. D(O  14,C  12,C  10,H  28)     65.9322         0.010688   
    166. D(O  14,C  12,C  10,C  11)    -49.0766         0.010688   
    167. D(O  14,C  12,C  10,C   7)   -174.8729         0.010688   
    168. D(O  13,C  12,C  10,H  28)   -112.5931         0.010688   
    169. D(O  13,C  12,C  10,C  11)    132.3981         0.010688   
    170. D(O  13,C  12,C  10,C   7)      6.6018         0.010688   
    171. D(H  32,O  13,C  12,O  14)   -177.6497         0.031247   
    172. D(H  32,O  13,C  12,C  10)      0.9099         0.031247   
    -----------------------------------------------------------------

Number of atoms                         .... 33
Number of degrees of freedom            .... 172

         *************************************************************
         *                GEOMETRY OPTIMIZATION CYCLE   1            *
         *************************************************************
---------------------------------
CARTESIAN COORDINATES (ANGSTROEM)
---------------------------------
  C      2.675690    1.765150    3.505570
  C      2.369440    0.527300    2.660060
  C      0.853040    0.352390    2.531840
  C      3.012800    0.619580    1.262930
  C      4.523080    0.732870    1.261520
  C      5.325880   -0.263850    1.830750
  C      6.721380   -0.183020    1.760210
  C      7.347760    0.887500    1.103400
  C      6.538770    1.903120    0.570060
  C      5.144550    1.826240    0.648810
  C      8.859350    0.876260    0.894160
  C      9.169890    0.867970   -0.608440
  C      9.678300    1.971180    1.572970
  O      9.020530    2.789260    2.420480
  O     10.882370    2.102660    1.393150
  H      2.204980    1.685590    4.490920
  H      2.304980    2.675540    3.023360
  H      3.751990    1.879740    3.667750
  H      2.760940   -0.351840    3.186200
  H      0.400840    1.179480    1.973450
  H      0.380240    0.314730    3.519180
  H      0.610400   -0.580070    2.011090
  H      2.581370    1.474690    0.724970
  H      2.745680   -0.267330    0.672430
  H      4.870920   -1.129100    2.308410
  H      7.309580   -0.991920    2.190260
  H      6.980780    2.754480    0.053610
  H      4.547730    2.614970    0.199000
  H      9.245090   -0.060910    1.319030
  H      8.795070    1.769900   -1.106040
  H      8.710910    0.001180   -1.097520
  H     10.247760    0.826250   -0.793960
  H      8.069260    2.590220    2.530770

----------------------------
CARTESIAN COORDINATES (A.U.)
----------------------------
  NO LB      ZA    FRAG     MASS         X           Y           Z
   0 C     6.0000    0    12.011    5.056321    3.335650    6.624567
   1 C     6.0000    0    12.011    4.477593    0.996453    5.026785
   2 C     6.0000    0    12.011    1.612012    0.665921    4.784484
   3 C     6.0000    0    12.011    5.693367    1.170837    2.386592
   4 C     6.0000    0    12.011    8.547382    1.384924    2.383927
   5 C     6.0000    0    12.011   10.064455   -0.498604    3.459616
   6 C     6.0000    0    12.011   12.701567   -0.345858    3.326315
   7 C     6.0000    0    12.011   13.885254    1.677132    2.085124
   8 C     6.0000    0    12.011   12.356485    3.596376    1.077257
   9 C     6.0000    0    12.011    9.721791    3.451093    1.226073
  10 C     6.0000    0    12.011   16.741745    1.655891    1.689718
  11 C     6.0000    0    12.011   17.328581    1.640226   -1.149785
  12 C     6.0000    0    12.011   18.289336    3.724990    2.972483
  13 O     8.0000    0    15.999   17.046331    5.270938    4.574044
  14 O     8.0000    0    15.999   20.564699    3.973452    2.632672
  15 H     1.0000    0     1.008    4.166808    3.185303    8.486609
  16 H     1.0000    0     1.008    4.355781    5.056038    5.713322
  17 H     1.0000    0     1.008    7.090234    3.552194    6.931043
  18 H     1.0000    0     1.008    5.217420   -0.664881    6.021045
  19 H     1.0000    0     1.008    0.757478    2.228894    3.729280
  20 H     1.0000    0     1.008    0.718549    0.594754    6.650286
  21 H     1.0000    0     1.008    1.153489   -1.096173    3.800409
  22 H     1.0000    0     1.008    4.878082    2.786760    1.369995
  23 H     1.0000    0     1.008    5.188583   -0.505180    1.270709
  24 H     1.0000    0     1.008    9.204705   -2.133690    4.362263
  25 H     1.0000    0     1.008   13.813104   -1.874457    4.138992
  26 H     1.0000    0     1.008   13.191762    5.205213    0.101308
  27 H     1.0000    0     1.008    8.593964    4.941577    0.376056
  28 H     1.0000    0     1.008   17.470688   -0.115103    2.492605
  29 H     1.0000    0     1.008   16.620274    3.344626   -2.090113
  30 H     1.0000    0     1.008   16.461234    0.002230   -2.074012
  31 H     1.0000    0     1.008   19.365460    1.561386   -1.500367
  32 H     1.0000    0     1.008   15.248692    4.894806    4.782462

--------------------------------
INTERNAL COORDINATES (ANGSTROEM)
--------------------------------
 C      0   0   0     0.000000000000     0.00000000     0.00000000
 C      1   0   0     1.530015962368     0.00000000     0.00000000
 C      2   1   0     1.531829898030   109.68085940     0.00000000
 C      2   1   3     1.540908798372   111.65577864   122.37099460
 C      4   2   1     1.514523783438   114.94030142    60.48235825
 C      5   4   2     1.400700321732   121.19344506    59.79873337
 C      6   5   4     1.399617672974   120.65574792   176.56130566
 C      7   6   5     1.403482935735   120.83901683   359.15499176
 C      8   7   6     1.403709499897   118.19490163     2.69527821
 C      9   8   7     1.398556936739   120.88847266   357.73815028
 C      8   7   6     1.526044574480   120.04137847   187.16499061
 C     11   8   7     1.534376282305   109.55942235   117.51938940
 C     11   8   7     1.526535923259   117.71936967   243.19588913
 O     13  11   8     1.349143972821   116.91724670     6.60175040
 O     13  11   8     1.224502669536   122.63179623   185.12706172
 H      1   2   3     1.094902881629   110.63921864    57.20535059
 H      1   2   3     1.094880057495   111.19615783   297.02290207
 H      1   2   3     1.094465582145   111.31118805   176.39042216
 H      2   1   3     1.096805675222   108.17668635   242.93534909
 H      3   2   1     1.095610377917   111.41019161    65.07450784
 H      3   2   1     1.095353089739   110.84063340   304.91966346
 H      3   2   1     1.095233483646   110.87452355   185.38542895
 H      4   2   1     1.098519876288   109.06622004   297.16776483
 H      4   2   1     1.098477442873   109.72593932   181.88307048
 H      6   5   4     1.088028142881   120.30730276   358.44202786
 H      7   6   5     1.088687950011   118.41637635   181.70340462
 H      9   8   7     1.089452748952   120.77669238   179.87797866
 H     10   9   8     1.086562543713   118.97034900   181.84012235
 H     11   8   7     1.098907399829   107.51564157     0.82148629
 H     12  11   8     1.096163088824   111.77089727    62.30652671
 H     12  11   8     1.095986674600   110.88669119   302.04875038
 H     12  11   8     1.094514488575   111.43873545   181.88746548
 H     14  13  11     0.978108081247   114.93617530     0.90990338

---------------------------
INTERNAL COORDINATES (A.U.)
---------------------------
 C      0   0   0     0.000000000000     0.00000000     0.00000000
 C      1   0   0     2.891311149403     0.00000000     0.00000000
 C      2   1   0     2.894738991030   109.68085940     0.00000000
 C      2   1   3     2.911895626273   111.65577864   122.37099460
 C      4   2   1     2.862035174008   114.94030142    60.48235825
 C      5   4   2     2.646940003769   121.19344506    59.79873337
 C      6   5   4     2.644894094116   120.65574792   176.56130566
 C      7   6   5     2.652198382171   120.83901683   359.15499176
 C      8   7   6     2.652626526388   118.19490163     2.69527821
 C      9   8   7     2.642889593132   120.88847266   357.73815028
 C      8   7   6     2.883806313924   120.04137847   187.16499061
 C     11   8   7     2.899550959941   109.55942235   117.51938940
 C     11   8   7     2.884734828552   117.71936967   243.19588913
 O     13  11   8     2.549512623863   116.91724670     6.60175040
 O     13  11   8     2.313974695678   122.63179623   185.12706172
 H      1   2   3     2.069066589520   110.63921864    57.20535059
 H      1   2   3     2.069023458157   111.19615783   297.02290207
 H      1   2   3     2.068240213257   111.31118805   176.39042216
 H      2   1   3     2.072662348301   108.17668635   242.93534909
 H      3   2   1     2.070403563746   111.41019161    65.07450784
 H      3   2   1     2.069917359551   110.84063340   304.91966346
 H      3   2   1     2.069691336792   110.87452355   185.38542895
 H      4   2   1     2.075901718854   109.06622004   297.16776483
 H      4   2   1     2.075821531319   109.72593932   181.88307048
 H      6   5   4     2.056075216043   120.30730276   358.44202786
 H      7   6   5     2.057322070822   118.41637635   181.70340462
 H      9   8   7     2.058767331368   120.77669238   179.87797866
 H     10   9   8     2.053305634994   118.97034900   181.84012235
 H     11   8   7     2.076634032217   107.51564157     0.82148629
 H     12  11   8     2.071448035990   111.77089727    62.30652671
 H     12  11   8     2.071114661420   110.88669119   302.04875038
 H     12  11   8     2.068332633015   111.43873545   181.88746548
 H     14  13  11     1.848356402931   114.93617530     0.90990338

---------------------
BASIS SET INFORMATION
---------------------
There are 3 groups of distinct atoms

 Group   1 Type C   : 6s3p contracted to 2s1p pattern {33/3}
 Group   2 Type O   : 6s3p contracted to 2s1p pattern {33/3}
 Group   3 Type H   : 3s contracted to 1s pattern {3}

Atom   0C    basis set group =>   1
Atom   1C    basis set group =>   1
Atom   2C    basis set group =>   1
Atom   3C    basis set group =>   1
Atom   4C    basis set group =>   1
Atom   5C    basis set group =>   1
Atom   6C    basis set group =>   1
Atom   7C    basis set group =>   1
Atom   8C    basis set group =>   1
Atom   9C    basis set group =>   1
Atom  10C    basis set group =>   1
Atom  11C    basis set group =>   1
Atom  12C    basis set group =>   1
Atom  13O    basis set group =>   2
Atom  14O    basis set group =>   2
Atom  15H    basis set group =>   3
Atom  16H    basis set group =>   3
Atom  17H    basis set group =>   3
Atom  18H    basis set group =>   3
Atom  19H    basis set group =>   3
Atom  20H    basis set group =>   3
Atom  21H    basis set group =>   3
Atom  22H    basis set group =>   3
Atom  23H    basis set group =>   3
Atom  24H    basis set group =>   3
Atom  25H    basis set group =>   3
Atom  26H    basis set group =>   3
Atom  27H    basis set group =>   3
Atom  28H    basis set group =>   3
Atom  29H    basis set group =>   3
Atom  30H    basis set group =>   3
Atom  31H    basis set group =>   3
Atom  32H    basis set group =>   3
---------------------------------
AUXILIARY/J BASIS SET INFORMATION
---------------------------------
There are 3 groups of distinct atoms

 Group   1 Type C   : 12s5p4d2f1g contracted to 6s4p3d1f1g pattern {711111/2111/211/2/1}
 Group   2 Type O   : 12s5p4d2f1g contracted to 6s4p3d1f1g pattern {711111/2111/211/2/1}
 Group   3 Type H   : 5s2p1d contracted to 3s1p1d pattern {311/2/1}

Atom   0C    basis set group =>   1
Atom   1C    basis set group =>   1
Atom   2C    basis set group =>   1
Atom   3C    basis set group =>   1
Atom   4C    basis set group =>   1
Atom   5C    basis set group =>   1
Atom   6C    basis set group =>   1
Atom   7C    basis set group =>   1
Atom   8C    basis set group =>   1
Atom   9C    basis set group =>   1
Atom  10C    basis set group =>   1
Atom  11C    basis set group =>   1
Atom  12C    basis set group =>   1
Atom  13O    basis set group =>   2
Atom  14O    basis set group =>   2
Atom  15H    basis set group =>   3
Atom  16H    basis set group =>   3
Atom  17H    basis set group =>   3
Atom  18H    basis set group =>   3
Atom  19H    basis set group =>   3
Atom  20H    basis set group =>   3
Atom  21H    basis set group =>   3
Atom  22H    basis set group =>   3
Atom  23H    basis set group =>   3
Atom  24H    basis set group =>   3
Atom  25H    basis set group =>   3
Atom  26H    basis set group =>   3
Atom  27H    basis set group =>   3
Atom  28H    basis set group =>   3
Atom  29H    basis set group =>   3
Atom  30H    basis set group =>   3
Atom  31H    basis set group =>   3
Atom  32H    basis set group =>   3
------------------------------------------------------------------------------
                           ORCA GTO INTEGRAL CALCULATION
                           -- RI-GTO INTEGRALS CHOSEN --
------------------------------------------------------------------------------
------------------------------------------------------------------------------
                   ___                                                        
                  /   \      - P O W E R E D   B Y -                         
                 /     \                                                     
                 |  |  |   _    _      __       _____    __    __             
                 |  |  |  | |  | |    /  \     |  _  \  |  |  /  |          
                  \  \/   | |  | |   /    \    | | | |  |  | /  /          
                 / \  \   | |__| |  /  /\  \   | |_| |  |  |/  /          
                |  |  |   |  __  | /  /__\  \  |    /   |      \           
                |  |  |   | |  | | |   __   |  |    \   |  |\   \          
                \     /   | |  | | |  |  |  |  | |\  \  |  | \   \       
                 \___/    |_|  |_| |__|  |__|  |_| \__\ |__|  \__/        
                                                                              
                      - O R C A' S   B I G   F R I E N D -                    
                                      &                                       
                       - I N T E G R A L  F E E D E R -                       
                                                                              
 v1 FN, 2020, v2 2021                                                         
------------------------------------------------------------------------------


Reading SHARK input file Ibuprofeno\Ibuprofeno_PBE_STO-3G\Ibuprofeno_PBE_STO-3G.orcainp.SHARKINP.tmp ... ok
----------------------
SHARK INTEGRAL PACKAGE
----------------------

Number of atoms                             ...     33
Number of basis functions                   ...     93
Number of shells                            ...     63
Maximum angular momentum                    ...      1
Integral batch strategy                     ... SHARK/LIBINT Hybrid
RI-J (if used) integral strategy            ... SPLIT-RIJ (Revised 2003 algorithm where possible)
Printlevel                                  ...      1
Contraction scheme used                     ... SEGMENTED contraction
Coulomb Range Separation                    ... NOT USED
Exchange Range Separation                   ... NOT USED
Finite Nucleus Model                        ... NOT USED
Auxiliary Coulomb fitting basis             ... AVAILABLE
   # of basis functions in Aux-J            ...    933
   # of shells in Aux-J                     ...    315
   Maximum angular momentum in Aux-J        ...      4
Auxiliary J/K fitting basis                 ... NOT available
Auxiliary Correlation fitting basis         ... NOT available
Auxiliary 'external' fitting basis          ... NOT available
Integral threshold                          ...     2.500000e-11
Primitive cut-off                           ...     2.500000e-12
Primitive pair pre-selection threshold      ...     2.500000e-12

Calculating pre-screening integrals         ... done (  0.0 sec) Dimension = 63
Organizing shell pair data                  ... done (  0.0 sec)
Shell pair information
Total number of shell pairs                 ...      2016
Shell pairs after pre-screening             ...      1676
Total number of primitive shell pairs       ...     18144
Primitive shell pairs kept                  ...      9905
          la=0 lb=0:    927 shell pairs
          la=1 lb=0:    636 shell pairs
          la=1 lb=1:    113 shell pairs

Calculating one electron integrals          ... done (  0.0 sec)
Calculating RI/J V-Matrix + Cholesky decomp.... done (  0.0 sec)
Calculating Nuclear repulsion               ... done (  0.0 sec) ENN=    964.635694189365 Eh

SHARK setup successfully completed in   0.1 seconds

Maximum memory used throughout the entire GTOINT-calculation: 19.0 MB
-------------------------------------------------------------------------------
                                 ORCA SCF
-------------------------------------------------------------------------------

------------
SCF SETTINGS
------------
Hamiltonian:
 Density Functional     Method          .... DFT(GTOs)
 Exchange Functional    Exchange        .... PBE
   PBE kappa parameter   XKappa         ....  0.804000
   PBE mue parameter    XMuePBE         ....  0.219520
 Correlation Functional Correlation     .... PBE
   PBE beta parameter  CBetaPBE         ....  0.066725
 LDA part of GGA corr.  LDAOpt          .... PW91-LDA
 Gradients option       PostSCFGGA      .... off
   Density functional embedding theory  .... OFF
   NL short-range parameter             ....  6.400000
 RI-approximation to the Coulomb term is turned on
   Number of AuxJ basis functions       .... 933


General Settings:
 Integral files         IntName         .... Ibuprofeno\Ibuprofeno_PBE_STO-3G\Ibuprofeno_PBE_STO-3G.orcainp
 Hartree-Fock type      HFTyp           .... RHF
 Total Charge           Charge          ....    0
 Multiplicity           Mult            ....    1
 Number of Electrons    NEL             ....  112
 Basis Dimension        Dim             ....   93
 Nuclear Repulsion      ENuc            ....    964.6356941894 Eh

Convergence Acceleration:
 DIIS                   CNVDIIS         .... on
   Start iteration      DIISMaxIt       ....    12
   Startup error        DIISStart       ....  0.200000
   # of expansion vecs  DIISMaxEq       ....     5
   Bias factor          DIISBfac        ....   1.050
   Max. coefficient     DIISMaxC        ....  10.000
 Trust-Rad. Augm. Hess. CNVTRAH         .... auto
   Auto Start mean grad. ratio tolernc. ....  1.125000
   Auto Start start iteration           ....    20
   Auto Start num. interpolation iter.  ....    10
   Max. Number of Micro iterations      ....    16
   Max. Number of Macro iterations      .... Maxiter - #DIIS iter
   Number of Davidson start vectors     ....     2
   Converg. threshold I  (grad. norm)   ....   1.000e-05
   Converg. threshold II (energy diff.) ....   1.000e-08
   Grad. Scal. Fac. for Micro threshold ....   0.100
   Minimum threshold for Micro iter.    ....   0.010
   NR start threshold (gradient norm)   ....   0.001
   Initial trust radius                 ....   0.400
   Minimum AH scaling param. (alpha)    ....   1.000
   Maximum AH scaling param. (alpha)    .... 1000.000
   Orbital update algorithm             .... Taylor
   White noise on init. David. guess    .... on
   Maximum white noise                  ....   0.010
   Quad. conv. algorithm                .... NR
 SOSCF                  CNVSOSCF        .... on
   Start iteration      SOSCFMaxIt      ....   150
   Startup grad/error   SOSCFStart      ....  0.003300
 Level Shifting         CNVShift        .... on
   Level shift para.    LevelShift      ....    0.2500
   Turn off err/grad.   ShiftErr        ....    0.0010
 Zerner damping         CNVZerner       .... off
 Static damping         CNVDamp         .... on
   Fraction old density DampFac         ....    0.7000
   Max. Damping (<1)    DampMax         ....    0.9800
   Min. Damping (>=0)   DampMin         ....    0.0000
   Turn off err/grad.   DampErr         ....    0.1000
 Fernandez-Rico         CNVRico         .... off

SCF Procedure:
 Maximum # iterations   MaxIter         ....   125
 SCF integral mode      SCFMode         .... Direct
   Integral package                     .... SHARK and LIBINT hybrid scheme
 Reset frequency        DirectResetFreq ....    20
 Integral Threshold     Thresh          ....  2.500e-11 Eh
 Primitive CutOff       TCut            ....  2.500e-12 Eh

Convergence Tolerance:
 Convergence Check Mode ConvCheckMode   .... Total+1el-Energy
 Convergence forced     ConvForced      .... 0
 Energy Change          TolE            ....  1.000e-08 Eh
 1-El. energy change                    ....  1.000e-05 Eh
 Orbital Gradient       TolG            ....  1.000e-05
 Orbital Rotation angle TolX            ....  1.000e-05
 DIIS Error             TolErr          ....  5.000e-07


Diagonalization of the overlap matrix:
Smallest eigenvalue                        ... 1.742e-01
Time for diagonalization                   ...    0.001 sec
Threshold for overlap eigenvalues          ... 1.000e-08
Number of eigenvalues below threshold      ... 0
Time for construction of square roots      ...    0.000 sec
Total time needed                          ...    0.001 sec

Time for model grid setup =    0.182 sec

------------------------------
INITIAL GUESS: MODEL POTENTIAL
------------------------------
Loading Hartree-Fock densities                     ... done
Calculating cut-offs                               ... done
Initializing the effective Hamiltonian             ... done
Setting up the integral package (SHARK)            ... done
Starting the Coulomb interaction                   ... done (   0.1 sec)
Reading the grid                                   ... done
Mapping shells                                     ... done
Starting the XC term evaluation                    ... done (   0.1 sec)
  promolecular density results
     # of electrons  =    111.991513974
     EX              =    -88.092750280
     EC              =     -3.713065244
     EX+EC           =    -91.805815524
Transforming the Hamiltonian                       ... done (   0.0 sec)
Diagonalizing the Hamiltonian                      ... done (   0.0 sec)
Back transforming the eigenvectors                 ... done (   0.0 sec)
Now organizing SCF variables                       ... done
                      ------------------
                      INITIAL GUESS DONE (   0.3 sec)
                      ------------------
-------------------
DFT GRID GENERATION
-------------------

General Integration Accuracy     IntAcc      ... 4.388
Radial Grid Type                 RadialGrid  ... OptM3 with GC (2021)
Angular Grid (max. ang.)         AngularGrid ... 4 (Lebedev-302)
Angular grid pruning method      GridPruning ... 4 (adaptive)
Weight generation scheme         WeightScheme... Becke
Basis function cutoff            BFCut       ... 1.0000e-11
Integration weight cutoff        WCut        ... 1.0000e-14
Angular grids for H and He will be reduced by one unit
Partially contracted basis set               ... off
Rotationally invariant grid construction     ... off

Total number of grid points                  ...   146984
Total number of batches                      ...     2315
Average number of points per batch           ...       63
Average number of grid points per atom       ...     4454
Time for grid setup =    0.746 sec


--------------------
CPCM SOLVATION MODEL
--------------------
CPCM parameters:
  Epsilon                                         ...      80.4000
  Refrac                                          ...       1.3300
  Rsolv                                           ...       1.3000
  Surface type                                    ... GAUSSIAN VDW
  Epsilon function type                           ...         CPCM
Radii:
 Radius for C  used is    3.8550 Bohr (=   2.0400 Ang.)
 Radius for O  used is    3.4469 Bohr (=   1.8240 Ang.)
 Radius for H  used is    2.4944 Bohr (=   1.3200 Ang.)
Calculating surface                               ...        done! (  0.0s)
GEPOL surface points                              ...         1787
GEPOL Volume                                      ...    1843.8034
GEPOL Surface-area                                ...     987.4100
Calculating surface distance matrix               ...        done! (  0.0s)
Performing Cholesky decomposition & store         ...        done! (  0.0s)
Overall time for CPCM initialization              ...                 0.1s
--------------
SCF ITERATIONS
--------------
ITER       Energy         Delta-E        Max-DP      RMS-DP      [F,P]     Damp
               ***  Starting incremental Fock matrix formation  ***
  0   -647.4980266917   0.000000000000 0.12190765  0.00487082  0.1892165 0.7000
  1   -647.5837013409  -0.085674649255 0.07337009  0.00318702  0.0751390 0.7000
                               ***Turning on DIIS***
  2   -647.6124066069  -0.028705265956 0.10004030  0.00461951  0.0436393 0.0000
  3   -647.6592491390  -0.046842532172 0.06480715  0.00234780  0.0462567 0.0000
  4   -647.6700532733  -0.010804134292 0.02055542  0.00080357  0.0214270 0.0000
  5   -647.6720168839  -0.001963610568 0.00425745  0.00019381  0.0039724 0.0000
                      *** Initiating the SOSCF procedure ***
                           *** Shutting down DIIS ***
                      *** Re-Reading the Fockian *** 
                      *** Removing any level shift *** 
ITER      Energy       Delta-E        Grad      Rot      Max-DP    RMS-DP
  6   -647.67210690  -0.0000900209  0.000678  0.000678  0.001630  0.000059
               *** Restarting incremental Fock matrix formation ***
  7   -647.67211500  -0.0000080937  0.000143  0.000466  0.000658  0.000037
  8   -647.67211461   0.0000003834  0.000185  0.000277  0.000639  0.000023
  9   -647.67211545  -0.0000008393  0.000131  0.000348  0.000481  0.000020
 10   -647.67211524   0.0000002191  0.000229  0.000291  0.000375  0.000013
 11   -647.67211556  -0.0000003268  0.000030  0.000082  0.000132  0.000007
 12   -647.67211555   0.0000000139  0.000034  0.000057  0.000085  0.000004
 13   -647.67211558  -0.0000000285  0.000004  0.000015  0.000030  0.000001
 14   -647.67211558   0.0000000004  0.000006  0.000008  0.000019  0.000001
                  ***Gradient check signals convergence***
              ***Rediagonalizing the Fockian in SOSCF/NRSCF***

               *****************************************************
               *                     SUCCESS                       *
               *           SCF CONVERGED AFTER  15 CYCLES          *
               *****************************************************


----------------
TOTAL SCF ENERGY
----------------

Total Energy       :         -647.67211558 Eh          -17624.05425 eV

Components:
Nuclear Repulsion  :          964.63569419 Eh           26249.07172 eV
Electronic Energy  :        -1612.30780977 Eh          -43873.12597 eV
One Electron Energy:        -2797.96528897 Eh          -76136.50622 eV
Two Electron Energy:         1185.65747920 Eh           32263.38025 eV
CPCM Dielectric    :           -0.00858019 Eh              -0.23348 eV

Virial components:
Potential Energy   :        -1285.60850460 Eh          -34983.18592 eV
Kinetic Energy     :          637.93638902 Eh           17359.13167 eV
Virial Ratio       :            2.01526128


DFT components:
N(Alpha)           :       56.000021250404 electrons
N(Beta)            :       56.000021250404 electrons
N(Total)           :      112.000042500808 electrons
E(X)               :      -89.912591090195 Eh       
E(C)               :       -3.835136908125 Eh       
E(XC)              :      -93.747727998320 Eh       
DFET-embed. en.    :        0.000000000000 Eh       
CPCM Solvation Model Properties:
Surface-charge          :           -0.01413100
Charge-correction       :            0.00003255 Eh               0.00089 eV
Free-energy (cav+disp)  :  This term is not implemented in the current solvation scheme

---------------
SCF CONVERGENCE
---------------

  Last Energy change         ...   -2.5225e-09  Tolerance :   1.0000e-08
  Last MAX-Density change    ...    2.4356e-06  Tolerance :   1.0000e-07
  Last RMS-Density change    ...    1.0821e-07  Tolerance :   5.0000e-09
  Last Orbital Gradient      ...    4.0896e-07  Tolerance :   1.0000e-05
  Last Orbital Rotation      ...    6.2037e-07  Tolerance :   1.0000e-05

             **** THE GBW FILE WAS UPDATED (Ibuprofeno\Ibuprofeno_PBE_STO-3G\Ibuprofeno_PBE_STO-3G.orcainp.gbw) ****
             **** DENSITY Ibuprofeno\Ibuprofeno_PBE_STO-3G\Ibuprofeno_PBE_STO-3G.orcainp.scfp WAS UPDATED ****
             **** ENERGY FILE WAS UPDATED (Ibuprofeno\Ibuprofeno_PBE_STO-3G\Ibuprofeno_PBE_STO-3G.orcainp.en.tmp) ****
             **** THE GBW FILE WAS UPDATED (Ibuprofeno\Ibuprofeno_PBE_STO-3G\Ibuprofeno_PBE_STO-3G.orcainp.gbw) ****
             **** DENSITY Ibuprofeno\Ibuprofeno_PBE_STO-3G\Ibuprofeno_PBE_STO-3G.orcainp.scfp WAS UPDATED ****
----------------
ORBITAL ENERGIES
----------------

  NO   OCC          E(Eh)            E(eV) 
   0   2.0000     -18.554565      -504.8954 
   1   2.0000     -18.474956      -502.7291 
   2   2.0000      -9.805553      -266.8227 
   3   2.0000      -9.737051      -264.9586 
   4   2.0000      -9.725775      -264.6518 
   5   2.0000      -9.720862      -264.5181 
   6   2.0000      -9.719201      -264.4729 
   7   2.0000      -9.717730      -264.4329 
   8   2.0000      -9.711404      -264.2607 
   9   2.0000      -9.708928      -264.1934 
  10   2.0000      -9.708870      -264.1918 
  11   2.0000      -9.706983      -264.1404 
  12   2.0000      -9.706844      -264.1367 
  13   2.0000      -9.700201      -263.9559 
  14   2.0000      -9.699354      -263.9328 
  15   2.0000      -0.941516       -25.6200 
  16   2.0000      -0.860009       -23.4020 
  17   2.0000      -0.740143       -20.1403 
  18   2.0000      -0.700019       -19.0485 
  19   2.0000      -0.675666       -18.3858 
  20   2.0000      -0.630087       -17.1455 
  21   2.0000      -0.626282       -17.0420 
  22   2.0000      -0.576169       -15.6784 
  23   2.0000      -0.569835       -15.5060 
  24   2.0000      -0.539787       -14.6884 
  25   2.0000      -0.506395       -13.7797 
  26   2.0000      -0.489455       -13.3187 
  27   2.0000      -0.477623       -12.9968 
  28   2.0000      -0.461389       -12.5550 
  29   2.0000      -0.418939       -11.3999 
  30   2.0000      -0.393807       -10.7160 
  31   2.0000      -0.380743       -10.3605 
  32   2.0000      -0.364227        -9.9111 
  33   2.0000      -0.353346        -9.6150 
  34   2.0000      -0.345461        -9.4005 
  35   2.0000      -0.341585        -9.2950 
  36   2.0000      -0.326495        -8.8844 
  37   2.0000      -0.324464        -8.8291 
  38   2.0000      -0.311410        -8.4739 
  39   2.0000      -0.297731        -8.1017 
  40   2.0000      -0.295458        -8.0398 
  41   2.0000      -0.290406        -7.9024 
  42   2.0000      -0.283066        -7.7026 
  43   2.0000      -0.272156        -7.4057 
  44   2.0000      -0.263646        -7.1742 
  45   2.0000      -0.258635        -7.0378 
  46   2.0000      -0.245442        -6.6788 
  47   2.0000      -0.243172        -6.6170 
  48   2.0000      -0.239721        -6.5231 
  49   2.0000      -0.234512        -6.3814 
  50   2.0000      -0.225062        -6.1243 
  51   2.0000      -0.193023        -5.2524 
  52   2.0000      -0.164054        -4.4641 
  53   2.0000      -0.155858        -4.2411 
  54   2.0000      -0.135765        -3.6944 
  55   2.0000      -0.090336        -2.4582 
  56   0.0000       0.056000         1.5238 
  57   0.0000       0.059311         1.6139 
  58   0.0000       0.090829         2.4716 
  59   0.0000       0.198787         5.4093 
  60   0.0000       0.272273         7.4089 
  61   0.0000       0.285863         7.7787 
  62   0.0000       0.305937         8.3250 
  63   0.0000       0.317163         8.6305 
  64   0.0000       0.323972         8.8157 
  65   0.0000       0.339559         9.2399 
  66   0.0000       0.355266         9.6673 
  67   0.0000       0.361934         9.8487 
  68   0.0000       0.379458        10.3256 
  69   0.0000       0.381967        10.3939 
  70   0.0000       0.396214        10.7815 
  71   0.0000       0.398697        10.8491 
  72   0.0000       0.411787        11.2053 
  73   0.0000       0.415291        11.3007 
  74   0.0000       0.421744        11.4762 
  75   0.0000       0.427443        11.6313 
  76   0.0000       0.427889        11.6435 
  77   0.0000       0.447402        12.1744 
  78   0.0000       0.451895        12.2967 
  79   0.0000       0.453945        12.3525 
  80   0.0000       0.462017        12.5721 
  81   0.0000       0.464301        12.6343 
  82   0.0000       0.468443        12.7470 
  83   0.0000       0.478585        13.0230 
  84   0.0000       0.495070        13.4715 
  85   0.0000       0.506752        13.7894 
  86   0.0000       0.538608        14.6563 
  87   0.0000       0.548328        14.9208 
  88   0.0000       0.556681        15.1481 
  89   0.0000       0.583082        15.8665 
  90   0.0000       0.617211        16.7952 
  91   0.0000       0.712071        19.3764 
  92   0.0000       0.748815        20.3763 

                    ********************************
                    * MULLIKEN POPULATION ANALYSIS *
                    ********************************

-----------------------
MULLIKEN ATOMIC CHARGES
-----------------------
   0 C :   -0.243817
   1 C :   -0.053036
   2 C :   -0.242448
   3 C :   -0.154717
   4 C :   -0.004016
   5 C :   -0.097492
   6 C :   -0.095508
   7 C :   -0.023019
   8 C :   -0.102583
   9 C :   -0.096726
  10 C :   -0.097405
  11 C :   -0.238683
  12 C :    0.203415
  13 O :   -0.236097
  14 O :   -0.231859
  15 H :    0.080113
  16 H :    0.079101
  17 H :    0.079909
  18 H :    0.080495
  19 H :    0.079235
  20 H :    0.080514
  21 H :    0.079360
  22 H :    0.084652
  23 H :    0.088669
  24 H :    0.091734
  25 H :    0.091724
  26 H :    0.092210
  27 H :    0.091627
  28 H :    0.100919
  29 H :    0.086079
  30 H :    0.087116
  31 H :    0.088327
  32 H :    0.252205
Sum of atomic charges:    0.0000000

--------------------------------
MULLIKEN REDUCED ORBITAL CHARGES
--------------------------------
  0 C s       :     3.194986  s :     3.194986
      pz      :     1.016925  p :     3.048831
      px      :     1.037644
      py      :     0.994262
  1 C s       :     3.170922  s :     3.170922
      pz      :     0.946308  p :     2.882114
      px      :     0.950003
      py      :     0.985803
  2 C s       :     3.196077  s :     3.196077
      pz      :     1.039107  p :     3.046371
      px      :     0.969037
      py      :     1.038227
  3 C s       :     3.186631  s :     3.186631
      pz      :     0.982199  p :     2.968086
      px      :     0.944660
      py      :     1.041226
  4 C s       :     3.135116  s :     3.135116
      pz      :     0.973590  p :     2.868901
      px      :     0.939293
      py      :     0.956017
  5 C s       :     3.148785  s :     3.148785
      pz      :     1.002932  p :     2.948706
      px      :     0.956325
      py      :     0.989450
  6 C s       :     3.151247  s :     3.151247
      pz      :     0.998929  p :     2.944261
      px      :     0.964638
      py      :     0.980694
  7 C s       :     3.139449  s :     3.139449
      pz      :     0.990942  p :     2.883570
      px      :     0.927111
      py      :     0.965517
  8 C s       :     3.150448  s :     3.150448
      pz      :     1.000831  p :     2.952134
      px      :     0.960067
      py      :     0.991237
  9 C s       :     3.148931  s :     3.148931
      pz      :     1.001731  p :     2.947795
      px      :     0.962102
      py      :     0.983962
 10 C s       :     3.178892  s :     3.178892
      pz      :     0.968895  p :     2.918513
      px      :     0.935663
      py      :     1.013954
 11 C s       :     3.197879  s :     3.197879
      pz      :     0.950499  p :     3.040804
      px      :     1.043597
      py      :     1.046707
 12 C s       :     3.079726  s :     3.079726
      pz      :     0.938271  p :     2.716859
      px      :     0.841934
      py      :     0.936654
 13 O s       :     3.816157  s :     3.816157
      pz      :     1.576692  p :     4.419940
      px      :     1.240441
      py      :     1.602807
 14 O s       :     3.885336  s :     3.885336
      pz      :     1.496064  p :     4.346523
      px      :     1.271995
      py      :     1.578464
 15 H s       :     0.919887  s :     0.919887
 16 H s       :     0.920899  s :     0.920899
 17 H s       :     0.920091  s :     0.920091
 18 H s       :     0.919505  s :     0.919505
 19 H s       :     0.920765  s :     0.920765
 20 H s       :     0.919486  s :     0.919486
 21 H s       :     0.920640  s :     0.920640
 22 H s       :     0.915348  s :     0.915348
 23 H s       :     0.911331  s :     0.911331
 24 H s       :     0.908266  s :     0.908266
 25 H s       :     0.908276  s :     0.908276
 26 H s       :     0.907790  s :     0.907790
 27 H s       :     0.908373  s :     0.908373
 28 H s       :     0.899081  s :     0.899081
 29 H s       :     0.913921  s :     0.913921
 30 H s       :     0.912884  s :     0.912884
 31 H s       :     0.911673  s :     0.911673
 32 H s       :     0.747795  s :     0.747795


                     *******************************
                     * LOEWDIN POPULATION ANALYSIS *
                     *******************************

----------------------
LOEWDIN ATOMIC CHARGES
----------------------
   0 C :   -0.141048
   1 C :   -0.004123
   2 C :   -0.139411
   3 C :   -0.081692
   4 C :    0.004844
   5 C :   -0.061284
   6 C :   -0.059564
   7 C :   -0.015700
   8 C :   -0.065497
   9 C :   -0.061028
  10 C :   -0.059415
  11 C :   -0.131844
  12 C :    0.121564
  13 O :   -0.127064
  14 O :   -0.182771
  15 H :    0.044466
  16 H :    0.043463
  17 H :    0.044162
  18 H :    0.040617
  19 H :    0.043501
  20 H :    0.044780
  21 H :    0.043623
  22 H :    0.046401
  23 H :    0.050442
  24 H :    0.052130
  25 H :    0.051958
  26 H :    0.052576
  27 H :    0.051821
  28 H :    0.059695
  29 H :    0.048913
  30 H :    0.049595
  31 H :    0.050656
  32 H :    0.185234

-------------------------------
LOEWDIN REDUCED ORBITAL CHARGES
-------------------------------
  0 C s       :     3.015199  s :     3.015199
      pz      :     1.042201  p :     3.125849
      px      :     1.057925
      py      :     1.025723
  1 C s       :     3.023813  s :     3.023813
      pz      :     0.981509  p :     2.980310
      px      :     0.986054
      py      :     1.012748
  2 C s       :     3.016373  s :     3.016373
      pz      :     1.058804  p :     3.123038
      px      :     1.006182
      py      :     1.058052
  3 C s       :     3.024627  s :     3.024627
      pz      :     1.012382  p :     3.057065
      px      :     0.985859
      py      :     1.058824
  4 C s       :     3.028538  s :     3.028538
      pz      :     0.986460  p :     2.966618
      px      :     0.983836
      py      :     0.996322
  5 C s       :     3.026183  s :     3.026183
      pz      :     1.011711  p :     3.035101
      px      :     1.007899
      py      :     1.015492
  6 C s       :     3.028800  s :     3.028800
      pz      :     1.009192  p :     3.030764
      px      :     1.012385
      py      :     1.009187
  7 C s       :     3.033591  s :     3.033591
      pz      :     1.004471  p :     2.982109
      px      :     0.972970
      py      :     1.004669
  8 C s       :     3.027535  s :     3.027535
      pz      :     1.009519  p :     3.037962
      px      :     1.010926
      py      :     1.017517
  9 C s       :     3.026383  s :     3.026383
      pz      :     1.011408  p :     3.034644
      px      :     1.010328
      py      :     1.012908
 10 C s       :     3.036207  s :     3.036207
      pz      :     1.003067  p :     3.023208
      px      :     0.976999
      py      :     1.043142
 11 C s       :     3.016798  s :     3.016798
      pz      :     0.987665  p :     3.115046
      px      :     1.062420
      py      :     1.064961
 12 C s       :     3.043252  s :     3.043252
      pz      :     0.959529  p :     2.835185
      px      :     0.914012
      py      :     0.961644
 13 O s       :     3.669030  s :     3.669030
      pz      :     1.588136  p :     4.458034
      px      :     1.254170
      py      :     1.615728
 14 O s       :     3.770359  s :     3.770359
      pz      :     1.502073  p :     4.412412
      px      :     1.325264
      py      :     1.585075
 15 H s       :     0.955534  s :     0.955534
 16 H s       :     0.956537  s :     0.956537
 17 H s       :     0.955838  s :     0.955838
 18 H s       :     0.959383  s :     0.959383
 19 H s       :     0.956499  s :     0.956499
 20 H s       :     0.955220  s :     0.955220
 21 H s       :     0.956377  s :     0.956377
 22 H s       :     0.953599  s :     0.953599
 23 H s       :     0.949558  s :     0.949558
 24 H s       :     0.947870  s :     0.947870
 25 H s       :     0.948042  s :     0.948042
 26 H s       :     0.947424  s :     0.947424
 27 H s       :     0.948179  s :     0.948179
 28 H s       :     0.940305  s :     0.940305
 29 H s       :     0.951087  s :     0.951087
 30 H s       :     0.950405  s :     0.950405
 31 H s       :     0.949344  s :     0.949344
 32 H s       :     0.814766  s :     0.814766


                      *****************************
                      * MAYER POPULATION ANALYSIS *
                      *****************************

  NA   - Mulliken gross atomic population
  ZA   - Total nuclear charge
  QA   - Mulliken gross atomic charge
  VA   - Mayer's total valence
  BVA  - Mayer's bonded valence
  FA   - Mayer's free valence

  ATOM       NA         ZA         QA         VA         BVA        FA
  0 C      6.2438     6.0000    -0.2438     3.9566     3.9566    -0.0000
  1 C      6.0530     6.0000    -0.0530     3.9609     3.9609     0.0000
  2 C      6.2424     6.0000    -0.2424     3.9562     3.9562     0.0000
  3 C      6.1547     6.0000    -0.1547     3.9572     3.9572    -0.0000
  4 C      6.0040     6.0000    -0.0040     3.9746     3.9746    -0.0000
  5 C      6.0975     6.0000    -0.0975     3.9695     3.9695     0.0000
  6 C      6.0955     6.0000    -0.0955     3.9684     3.9684     0.0000
  7 C      6.0230     6.0000    -0.0230     3.9722     3.9722     0.0000
  8 C      6.1026     6.0000    -0.1026     3.9690     3.9690     0.0000
  9 C      6.0967     6.0000    -0.0967     3.9691     3.9691     0.0000
 10 C      6.0974     6.0000    -0.0974     3.9600     3.9600     0.0000
 11 C      6.2387     6.0000    -0.2387     3.9506     3.9506    -0.0000
 12 C      5.7966     6.0000     0.2034     3.9185     3.9185     0.0000
 13 O      8.2361     8.0000    -0.2361     2.3358     2.3358     0.0000
 14 O      8.2319     8.0000    -0.2319     2.2887     2.2887    -0.0000
 15 H      0.9199     1.0000     0.0801     0.9936     0.9936    -0.0000
 16 H      0.9209     1.0000     0.0791     0.9937     0.9937     0.0000
 17 H      0.9201     1.0000     0.0799     0.9936     0.9936     0.0000
 18 H      0.9195     1.0000     0.0805     0.9935     0.9935     0.0000
 19 H      0.9208     1.0000     0.0792     0.9937     0.9937     0.0000
 20 H      0.9195     1.0000     0.0805     0.9935     0.9935     0.0000
 21 H      0.9206     1.0000     0.0794     0.9937     0.9937     0.0000
 22 H      0.9153     1.0000     0.0847     0.9928     0.9928     0.0000
 23 H      0.9113     1.0000     0.0887     0.9921     0.9921     0.0000
 24 H      0.9083     1.0000     0.0917     0.9916     0.9916     0.0000
 25 H      0.9083     1.0000     0.0917     0.9916     0.9916     0.0000
 26 H      0.9078     1.0000     0.0922     0.9915     0.9915     0.0000
 27 H      0.9084     1.0000     0.0916     0.9916     0.9916     0.0000
 28 H      0.8991     1.0000     0.1009     0.9898     0.9898     0.0000
 29 H      0.9139     1.0000     0.0861     0.9926     0.9926     0.0000
 30 H      0.9129     1.0000     0.0871     0.9924     0.9924    -0.0000
 31 H      0.9117     1.0000     0.0883     0.9922     0.9922     0.0000
 32 H      0.7478     1.0000     0.2522     0.9364     0.9364    -0.0000

  Mayer bond orders larger than 0.100000
B(  0-C ,  1-C ) :   0.9971 B(  0-C , 15-H ) :   0.9754 B(  0-C , 16-H ) :   0.9755 
B(  0-C , 17-H ) :   0.9743 B(  1-C ,  2-C ) :   0.9947 B(  1-C ,  3-C ) :   0.9719 
B(  1-C , 18-H ) :   0.9535 B(  2-C , 19-H ) :   0.9754 B(  2-C , 20-H ) :   0.9750 
B(  2-C , 21-H ) :   0.9758 B(  3-C ,  4-C ) :   0.9974 B(  3-C , 22-H ) :   0.9625 
B(  3-C , 23-H ) :   0.9533 B(  4-C ,  5-C ) :   1.3992 B(  4-C ,  7-C ) :   0.1066 
B(  4-C ,  9-C ) :   1.4050 B(  5-C ,  6-C ) :   1.4435 B(  5-C ,  8-C ) :   0.1121 
B(  5-C , 24-H ) :   0.9567 B(  6-C ,  7-C ) :   1.3939 B(  6-C ,  9-C ) :   0.1099 
B(  6-C , 25-H ) :   0.9566 B(  7-C ,  8-C ) :   1.3924 B(  7-C , 10-C ) :   0.9848 
B(  8-C ,  9-C ) :   1.4371 B(  8-C , 26-H ) :   0.9560 B(  9-C , 27-H ) :   0.9569 
B( 10-C , 11-C ) :   0.9795 B( 10-C , 12-C ) :   0.8916 B( 10-C , 28-H ) :   0.9415 
B( 11-C , 29-H ) :   0.9735 B( 11-C , 30-H ) :   0.9741 B( 11-C , 31-H ) :   0.9707 
B( 12-C , 13-O ) :   1.1111 B( 12-C , 14-O ) :   1.8613 B( 13-O , 14-O ) :   0.2704 
B( 13-O , 32-H ) :   0.8726 

-------
TIMINGS
-------

Total SCF time: 0 days 0 hours 0 min 12 sec 

Total time                  ....      12.452 sec
Sum of individual times     ....      12.321 sec  ( 98.9%)

Fock matrix formation       ....      11.218 sec  ( 90.1%)
  Split-RI-J                ....       2.610 sec  ( 23.3% of F)
  XC integration            ....       3.758 sec  ( 33.5% of F)
    Basis function eval.    ....       1.816 sec  ( 48.3% of XC)
    Density eval.           ....       0.906 sec  ( 24.1% of XC)
    XC-Functional eval.     ....       0.414 sec  ( 11.0% of XC)
    XC-Potential eval.      ....       0.354 sec  (  9.4% of XC)
Diagonalization             ....       0.003 sec  (  0.0%)
Density matrix formation    ....       0.001 sec  (  0.0%)
Population analysis         ....       0.013 sec  (  0.1%)
Initial guess               ....       0.137 sec  (  1.1%)
Orbital Transformation      ....       0.000 sec  (  0.0%)
Orbital Orthonormalization  ....       0.000 sec  (  0.0%)
DIIS solution               ....       0.005 sec  (  0.0%)
SOSCF solution              ....       0.016 sec  (  0.1%)
Grid generation             ....       0.928 sec  (  7.5%)

Maximum memory used throughout the entire SCF-calculation: 73.4 MB

-------------------------   --------------------
FINAL SINGLE POINT ENERGY      -647.672115578658
-------------------------   --------------------

------------------------------------------------------------------------------
                         ORCA SCF GRADIENT CALCULATION
------------------------------------------------------------------------------

Gradient of the Kohn-Sham DFT energy:
Kohn-Sham wavefunction type      ... RKS
Hartree-Fock exchange scaling    ...    0.000
Number of operators              ...    1
Number of atoms                  ...   33
Basis set dimensions             ...   93
Integral neglect threshold       ... 2.5e-11
Integral primitive cutoff        ... 2.5e-12
SHARK Integral package           ... ON

Nuc. rep. gradient       (SHARK) ... done (  0.0 sec)
HCore & Overlap gradient (SHARK) ... done (  0.1 sec)
RI-J gradient            (SHARK) ... done (  0.6 sec)
Exchange-correlation gradient    ... done

------------------
CARTESIAN GRADIENT
------------------

   1   C   :   -0.005329535   -0.008929449   -0.008077010
   2   C   :    0.002846976    0.001747597   -0.004191782
   3   C   :    0.012187587    0.004413302    0.001933611
   4   C   :    0.004792213    0.000844929    0.010261511
   5   C   :    0.007343815   -0.002156419   -0.001370322
   6   C   :   -0.006503781    0.003824833   -0.002416621
   7   C   :    0.005917382    0.005466991   -0.002411327
   8   C   :   -0.007926916   -0.001209102   -0.003519415
   9   C   :    0.002876593   -0.006130503    0.003317057
  10   C   :   -0.007333641   -0.004041048    0.001589245
  11   C   :    0.015742487    0.024690652    0.010677453
  12   C   :   -0.003648613    0.000687016    0.017674574
  13   C   :    0.032924061    0.017912214    0.008117740
  14   O   :   -0.036259169   -0.067844662   -0.045888377
  15   O   :   -0.070859225   -0.011331570    0.009126008
  16   H   :    0.004877696    0.000900289   -0.007283840
  17   H   :    0.003258923   -0.006817795    0.004355412
  18   H   :   -0.009284878   -0.000928225    0.000259927
  19   H   :   -0.006329105    0.009498171   -0.003907103
  20   H   :    0.002272382   -0.006756711    0.004203235
  21   H   :    0.002843123    0.000037890   -0.007929509
  22   H   :    0.001822908    0.007132393    0.004852886
  23   H   :    0.002019837   -0.007887107    0.002354976
  24   H   :    0.004905194    0.010420840    0.002645466
  25   H   :    0.006470413    0.009486385   -0.005885123
  26   H   :   -0.009468889    0.007966451   -0.004097361
  27   H   :   -0.007138318   -0.008443801    0.005183916
  28   H   :    0.009150286   -0.009641377    0.004932651
  29   H   :   -0.001968190    0.011198576   -0.003428709
  30   H   :    0.004275529   -0.006679761    0.001511687
  31   H   :    0.003728994    0.006575278    0.002526903
  32   H   :   -0.010233356    0.000943224   -0.002009977
  33   H   :    0.052027216    0.025050500    0.006892217

Difference to translation invariance:
           :    0.0000000000    0.0000000000    0.0000000000

Difference to rotation invariance:
           :    0.0001651242   -0.0006681781   -0.0007086845

Norm of the cartesian gradient     ...    0.1489641518
RMS gradient                       ...    0.0149714606
MAX gradient                       ...    0.0708592247

-------
TIMINGS
-------

Total SCF gradient time            ...        4.610 sec

One electron gradient       ....       0.095 sec  (  2.1%)
RI-J Coulomb gradient       ....       0.574 sec  ( 12.5%)
XC gradient                 ....       3.368 sec  ( 73.1%)
CPCM gradient               ....       0.325 sec  (  7.0%)
   A-Matrix (El+Nuc)        ....       0.071 sec  (  1.5%)
   Potential                ....       0.254 sec  (  5.5%)

Maximum memory used throughout the entire SCFGRAD-calculation: 30.4 MB
------------------------------------------------------------------------------
                         ORCA GEOMETRY RELAXATION STEP
------------------------------------------------------------------------------

Reading the OPT-File                    .... done
Getting information on internals        .... done
Copying old internal coords+grads       .... done
Making the new internal coordinates     .... (new redundants).... done
Validating the new internal coordinates .... (new redundants).... done
Calculating the B-matrix                .... done
Calculating the G,G- and P matrices     .... done
Transforming gradient to internals      .... done
Projecting the internal gradient        .... done
Number of atoms                         ....  33
Number of internal coordinates          .... 172
Current Energy                          ....  -647.672115579 Eh
Current gradient norm                   ....     0.148964152 Eh/bohr
Maximum allowed component of the step   ....  0.300
Current trust radius                    ....  0.300
Evaluating the initial hessian          ....  (Almloef) done
Projecting the Hessian                  .... done
Forming the augmented Hessian           .... done
Diagonalizing the augmented Hessian     .... done
Last element of RFO vector              ....  0.961205601
Lowest eigenvalues of augmented Hessian:
 -0.038758075  0.001814288  0.010523238  0.010693753  0.010812808
Length of the computed step             ....  0.286965564
The final length of the internal step   ....  0.286965564
Converting the step to cartesian space:
 Initial RMS(Int)=    0.0218809191
Transforming coordinates:
 Iter   0:  RMS(Cart)=    0.0767617068 RMS(Int)=    0.0221809828
 Iter   1:  RMS(Cart)=    0.0028050832 RMS(Int)=    0.0009654842
 Iter   2:  RMS(Cart)=    0.0002858925 RMS(Int)=    0.0001356816
 Iter   3:  RMS(Cart)=    0.0000196656 RMS(Int)=    0.0000092711
 Iter   4:  RMS(Cart)=    0.0000047986 RMS(Int)=    0.0000018529
 Iter   5:  RMS(Cart)=    0.0000003767 RMS(Int)=    0.0000002066
 Iter   6:  RMS(Cart)=    0.0000000458 RMS(Int)=    0.0000000163
done
Storing new coordinates                 .... done

                                .--------------------.
          ----------------------|Geometry convergence|-------------------------
          Item                value                   Tolerance       Converged
          ---------------------------------------------------------------------
          RMS gradient        0.0112110193            0.0001000000      NO
          MAX gradient        0.0722336488            0.0003000000      NO
          RMS step            0.0218809191            0.0020000000      NO
          MAX step            0.1153617340            0.0040000000      NO
          ........................................................
          Max(Bonds)      0.0610      Max(Angles)    5.00
          Max(Dihed)        1.38      Max(Improp)    0.00
          ---------------------------------------------------------------------

The optimization has not yet converged - more geometry cycles are needed


    ---------------------------------------------------------------------------
                         Redundant Internal Coordinates
[...]
  21   2.0000      -0.619690       -16.8626 
  22   2.0000      -0.571762       -15.5584 
  23   2.0000      -0.566466       -15.4143 
  24   2.0000      -0.529590       -14.4109 
  25   2.0000      -0.501062       -13.6346 
  26   2.0000      -0.477834       -13.0025 
  27   2.0000      -0.458190       -12.4680 
  28   2.0000      -0.436431       -11.8759 
  29   2.0000      -0.404817       -11.0156 
  30   2.0000      -0.389074       -10.5872 
  31   2.0000      -0.374390       -10.1877 
  32   2.0000      -0.359713        -9.7883 
  33   2.0000      -0.347435        -9.4542 
  34   2.0000      -0.341703        -9.2982 
  35   2.0000      -0.337734        -9.1902 
  36   2.0000      -0.323899        -8.8138 
  37   2.0000      -0.314752        -8.5648 
  38   2.0000      -0.309948        -8.4341 
  39   2.0000      -0.295235        -8.0338 
  40   2.0000      -0.294922        -8.0252 
  41   2.0000      -0.284829        -7.7506 
  42   2.0000      -0.280950        -7.6450 
  43   2.0000      -0.272432        -7.4133 
  44   2.0000      -0.260759        -7.0956 
  45   2.0000      -0.251609        -6.8466 
  46   2.0000      -0.244207        -6.6452 
  47   2.0000      -0.239117        -6.5067 
  48   2.0000      -0.235658        -6.4126 
  49   2.0000      -0.233714        -6.3597 
  50   2.0000      -0.225846        -6.1456 
  51   2.0000      -0.210755        -5.7349 
  52   2.0000      -0.164150        -4.4667 
  53   2.0000      -0.155775        -4.2389 
  54   2.0000      -0.129592        -3.5264 
  55   2.0000      -0.090635        -2.4663 
  56   0.0000       0.045574         1.2401 
  57   0.0000       0.055064         1.4984 
  58   0.0000       0.075329         2.0498 
  59   0.0000       0.183374         4.9899 
  60   0.0000       0.242419         6.5966 
  61   0.0000       0.270171         7.3517 
  62   0.0000       0.284888         7.7522 
  63   0.0000       0.298899         8.1334 
  64   0.0000       0.310853         8.4587 
  65   0.0000       0.325871         8.8674 
  66   0.0000       0.329006         8.9527 
  67   0.0000       0.343450         9.3457 
  68   0.0000       0.354953         9.6588 
  69   0.0000       0.363821         9.9001 
  70   0.0000       0.371334        10.1045 
  71   0.0000       0.378490        10.2992 
  72   0.0000       0.385839        10.4992 
  73   0.0000       0.389658        10.6031 
  74   0.0000       0.395910        10.7733 
  75   0.0000       0.408232        11.1086 
  76   0.0000       0.412740        11.2312 
  77   0.0000       0.427247        11.6260 
  78   0.0000       0.428045        11.6477 
  79   0.0000       0.438680        11.9371 
  80   0.0000       0.440208        11.9787 
  81   0.0000       0.443328        12.0636 
  82   0.0000       0.447669        12.1817 
  83   0.0000       0.450662        12.2631 
  84   0.0000       0.458051        12.4642 
  85   0.0000       0.476071        12.9546 
  86   0.0000       0.508269        13.8307 
  87   0.0000       0.530390        14.4326 
  88   0.0000       0.534263        14.5380 
  89   0.0000       0.553460        15.0604 
  90   0.0000       0.563833        15.3427 
  91   0.0000       0.683597        18.6016 
  92   0.0000       0.713900        19.4262 

                    ********************************
                    * MULLIKEN POPULATION ANALYSIS *
                    ********************************

-----------------------
MULLIKEN ATOMIC CHARGES
-----------------------
   0 C :   -0.236762
   1 C :   -0.047975
   2 C :   -0.235706
   3 C :   -0.148784
   4 C :   -0.002742
   5 C :   -0.094019
   6 C :   -0.093244
   7 C :   -0.032396
   8 C :   -0.094911
   9 C :   -0.093066
  10 C :   -0.085452
  11 C :   -0.233313
  12 C :    0.164350
  13 O :   -0.201453
  14 O :   -0.213185
  15 H :    0.078139
  16 H :    0.076950
  17 H :    0.078706
  18 H :    0.075443
  19 H :    0.077623
  20 H :    0.078918
  21 H :    0.078178
  22 H :    0.083098
  23 H :    0.085534
  24 H :    0.090873
  25 H :    0.091951
  26 H :    0.092786
  27 H :    0.090786
  28 H :    0.096332
  29 H :    0.085396
  30 H :    0.086419
  31 H :    0.088178
  32 H :    0.213350
Sum of atomic charges:   -0.0000000

--------------------------------
MULLIKEN REDUCED ORBITAL CHARGES
--------------------------------
  0 C s       :     3.205513  s :     3.205513
      pz      :     1.024731  p :     3.031248
      px      :     1.031062
      py      :     0.975456
  1 C s       :     3.193034  s :     3.193034
      pz      :     0.943206  p :     2.854941
      px      :     0.947388
      py      :     0.964347
  2 C s       :     3.206378  s :     3.206378
      pz      :     1.032892  p :     3.029328
      px      :     0.966216
      py      :     1.030220
  3 C s       :     3.202492  s :     3.202492
      pz      :     0.977632  p :     2.946292
      px      :     0.937720
      py      :     1.030941
  4 C s       :     3.156072  s :     3.156072
      pz      :     0.968498  p :     2.846670
      px      :     0.932573
      py      :     0.945599
  5 C s       :     3.161897  s :     3.161897
      pz      :     1.000437  p :     2.932123
      px      :     0.947964
      py      :     0.983721
  6 C s       :     3.164974  s :     3.164974
      pz      :     0.997724  p :     2.928270
      px      :     0.959471
      py      :     0.971075
  7 C s       :     3.158595  s :     3.158595
      pz      :     0.996648  p :     2.873801
      px      :     0.921617
      py      :     0.955536
  8 C s       :     3.163816  s :     3.163816
      pz      :     0.996811  p :     2.931095
      px      :     0.951392
      py      :     0.982893
  9 C s       :     3.162465  s :     3.162465
      pz      :     1.000064  p :     2.930601
      px      :     0.954948
      py      :     0.975588
 10 C s       :     3.206712  s :     3.206712
      pz      :     0.952982  p :     2.878740
      px      :     0.926357
      py      :     0.999402
 11 C s       :     3.207052  s :     3.207052
      pz      :     0.958939  p :     3.026261
      px      :     1.030968
      py      :     1.036354
 12 C s       :     3.157148  s :     3.157148
      pz      :     0.896001  p :     2.678502
      px      :     0.830554
      py      :     0.951947
 13 O s       :     3.874555  s :     3.874555
      pz      :     1.483140  p :     4.326898
      px      :     1.217414
      py      :     1.626344
 14 O s       :     3.896302  s :     3.896302
      pz      :     1.637970  p :     4.316883
      px      :     1.267310
      py      :     1.411603
 15 H s       :     0.921861  s :     0.921861
 16 H s       :     0.923050  s :     0.923050
 17 H s       :     0.921294  s :     0.921294
 18 H s       :     0.924557  s :     0.924557
 19 H s       :     0.922377  s :     0.922377
 20 H s       :     0.921082  s :     0.921082
 21 H s       :     0.921822  s :     0.921822
 22 H s       :     0.916902  s :     0.916902
 23 H s       :     0.914466  s :     0.914466
 24 H s       :     0.909127  s :     0.909127
 25 H s       :     0.908049  s :     0.908049
 26 H s       :     0.907214  s :     0.907214
 27 H s       :     0.909214  s :     0.909214
 28 H s       :     0.903668  s :     0.903668
 29 H s       :     0.914604  s :     0.914604
 30 H s       :     0.913581  s :     0.913581
 31 H s       :     0.911822  s :     0.911822
 32 H s       :     0.786650  s :     0.786650


                     *******************************
                     * LOEWDIN POPULATION ANALYSIS *
                     *******************************

----------------------
LOEWDIN ATOMIC CHARGES
----------------------
   0 C :   -0.136194
   1 C :   -0.001403
   2 C :   -0.134596
   3 C :   -0.077523
   4 C :    0.005869
   5 C :   -0.058807
   6 C :   -0.057395
   7 C :   -0.023634
   8 C :   -0.058501
   9 C :   -0.058040
  10 C :   -0.047701
  11 C :   -0.128902
  12 C :    0.096138
  13 O :   -0.121644
  14 O :   -0.166483
  15 H :    0.043302
  16 H :    0.042171
  17 H :    0.043766
  18 H :    0.037021
  19 H :    0.042622
  20 H :    0.043918
  21 H :    0.043178
  22 H :    0.045572
  23 H :    0.048136
  24 H :    0.052169
  25 H :    0.052933
  26 H :    0.053808
  27 H :    0.052044
  28 H :    0.056217
  29 H :    0.048987
  30 H :    0.049641
  31 H :    0.051382
  32 H :    0.161951

-------------------------------
LOEWDIN REDUCED ORBITAL CHARGES
-------------------------------
  0 C s       :     3.028750  s :     3.028750
      pz      :     1.046504  p :     3.107444
      px      :     1.051514
      py      :     1.009426
  1 C s       :     3.050698  s :     3.050698
      pz      :     0.975522  p :     2.950705
      px      :     0.980773
      py      :     0.994411
  2 C s       :     3.029465  s :     3.029465
      pz      :     1.052611  p :     3.105131
      px      :     1.001955
      py      :     1.050565
  3 C s       :     3.043824  s :     3.043824
      pz      :     1.007829  p :     3.033699
      px      :     0.977166
      py      :     1.048705
  4 C s       :     3.050673  s :     3.050673
      pz      :     0.978335  p :     2.943458
      px      :     0.976243
      py      :     0.988880
  5 C s       :     3.040621  s :     3.040621
      pz      :     1.006787  p :     3.018185
      px      :     0.999695
      py      :     1.011704
  6 C s       :     3.043462  s :     3.043462
      pz      :     1.005520  p :     3.013933
      px      :     1.006051
      py      :     1.002363
  7 C s       :     3.052274  s :     3.052274
      pz      :     1.006509  p :     2.971359
      px      :     0.967049
      py      :     0.997801
  8 C s       :     3.042033  s :     3.042033
      pz      :     1.003332  p :     3.016468
      px      :     1.002259
      py      :     1.010876
  9 C s       :     3.041220  s :     3.041220
      pz      :     1.007899  p :     3.016819
      px      :     1.002567
      py      :     1.006354
 10 C s       :     3.068632  s :     3.068632
      pz      :     0.988084  p :     2.979069
      px      :     0.966172
      py      :     1.024813
 11 C s       :     3.028591  s :     3.028591
      pz      :     0.993538  p :     3.100311
      px      :     1.051244
      py      :     1.055530
 12 C s       :     3.116427  s :     3.116427
      pz      :     0.925232  p :     2.787435
      px      :     0.892486
      py      :     0.969718
 13 O s       :     3.757072  s :     3.757072
      pz      :     1.499048  p :     4.364572
      px      :     1.234538
      py      :     1.630986
 14 O s       :     3.792810  s :     3.792810
      pz      :     1.642970  p :     4.373673
      px      :     1.309301
      py      :     1.421402
 15 H s       :     0.956698  s :     0.956698
 16 H s       :     0.957829  s :     0.957829
 17 H s       :     0.956234  s :     0.956234
 18 H s       :     0.962979  s :     0.962979
 19 H s       :     0.957378  s :     0.957378
 20 H s       :     0.956082  s :     0.956082
 21 H s       :     0.956822  s :     0.956822
 22 H s       :     0.954428  s :     0.954428
 23 H s       :     0.951864  s :     0.951864
 24 H s       :     0.947831  s :     0.947831
 25 H s       :     0.947067  s :     0.947067
 26 H s       :     0.946192  s :     0.946192
 27 H s       :     0.947956  s :     0.947956
 28 H s       :     0.943783  s :     0.943783
 29 H s       :     0.951013  s :     0.951013
 30 H s       :     0.950359  s :     0.950359
 31 H s       :     0.948618  s :     0.948618
 32 H s       :     0.838049  s :     0.838049


                      *****************************
                      * MAYER POPULATION ANALYSIS *
                      *****************************

  NA   - Mulliken gross atomic population
  ZA   - Total nuclear charge
  QA   - Mulliken gross atomic charge
  VA   - Mayer's total valence
  BVA  - Mayer's bonded valence
  FA   - Mayer's free valence

  ATOM       NA         ZA         QA         VA         BVA        FA
  0 C      6.2368     6.0000    -0.2368     3.9533     3.9533    -0.0000
  1 C      6.0480     6.0000    -0.0480     3.9509     3.9509    -0.0000
  2 C      6.2357     6.0000    -0.2357     3.9528     3.9528     0.0000
  3 C      6.1488     6.0000    -0.1488     3.9504     3.9504    -0.0000
  4 C      6.0027     6.0000    -0.0027     3.9660     3.9660     0.0000
  5 C      6.0940     6.0000    -0.0940     3.9645     3.9645    -0.0000
  6 C      6.0932     6.0000    -0.0932     3.9633     3.9633    -0.0000
  7 C      6.0324     6.0000    -0.0324     3.9650     3.9650    -0.0000
  8 C      6.0949     6.0000    -0.0949     3.9640     3.9640    -0.0000
  9 C      6.0931     6.0000    -0.0931     3.9641     3.9641     0.0000
 10 C      6.0855     6.0000    -0.0855     3.9469     3.9469    -0.0000
 11 C      6.2333     6.0000    -0.2333     3.9481     3.9481    -0.0000
 12 C      5.8357     6.0000     0.1643     3.8968     3.8968    -0.0000
 13 O      8.2015     8.0000    -0.2015     2.3438     2.3438    -0.0000
 14 O      8.2132     8.0000    -0.2132     2.3006     2.3006    -0.0000
 15 H      0.9219     1.0000     0.0781     0.9939     0.9939    -0.0000
 16 H      0.9230     1.0000     0.0770     0.9941     0.9941     0.0000
 17 H      0.9213     1.0000     0.0787     0.9938     0.9938    -0.0000
 18 H      0.9246     1.0000     0.0754     0.9943     0.9943    -0.0000
 19 H      0.9224     1.0000     0.0776     0.9940     0.9940     0.0000
 20 H      0.9211     1.0000     0.0789     0.9938     0.9938    -0.0000
 21 H      0.9218     1.0000     0.0782     0.9939     0.9939    -0.0000
 22 H      0.9169     1.0000     0.0831     0.9931     0.9931    -0.0000
 23 H      0.9145     1.0000     0.0855     0.9927     0.9927    -0.0000
 24 H      0.9091     1.0000     0.0909     0.9917     0.9917    -0.0000
 25 H      0.9080     1.0000     0.0920     0.9915     0.9915    -0.0000
 26 H      0.9072     1.0000     0.0928     0.9914     0.9914    -0.0000
 27 H      0.9092     1.0000     0.0908     0.9918     0.9918    -0.0000
 28 H      0.9037     1.0000     0.0963     0.9907     0.9907    -0.0000
 29 H      0.9146     1.0000     0.0854     0.9927     0.9927    -0.0000
 30 H      0.9136     1.0000     0.0864     0.9925     0.9925     0.0000
 31 H      0.9118     1.0000     0.0882     0.9922     0.9922    -0.0000
 32 H      0.7866     1.0000     0.2134     0.9545     0.9545    -0.0000

  Mayer bond orders larger than 0.100000
B(  0-C ,  1-C ) :   0.9931 B(  0-C , 15-H ) :   0.9753 B(  0-C , 16-H ) :   0.9757 
B(  0-C , 17-H ) :   0.9737 B(  1-C ,  2-C ) :   0.9902 B(  1-C ,  3-C ) :   0.9611 
B(  1-C , 18-H ) :   0.9557 B(  2-C , 19-H ) :   0.9758 B(  2-C , 20-H ) :   0.9749 
B(  2-C , 21-H ) :   0.9753 B(  3-C ,  4-C ) :   0.9943 B(  3-C , 22-H ) :   0.9629 
B(  3-C , 23-H ) :   0.9578 B(  4-C ,  5-C ) :   1.3951 B(  4-C ,  7-C ) :   0.1064 
B(  4-C ,  9-C ) :   1.3940 B(  5-C ,  6-C ) :   1.4435 B(  5-C ,  8-C ) :   0.1098 
B(  5-C , 24-H ) :   0.9558 B(  6-C ,  7-C ) :   1.3758 B(  6-C ,  9-C ) :   0.1064 
B(  6-C , 25-H ) :   0.9550 B(  7-C ,  8-C ) :   1.3728 B(  7-C , 10-C ) :   0.9841 
B(  8-C ,  9-C ) :   1.4447 B(  8-C , 26-H ) :   0.9544 B(  9-C , 27-H ) :   0.9557 
B( 10-C , 11-C ) :   0.9827 B( 10-C , 12-C ) :   0.8587 B( 10-C , 28-H ) :   0.9438 
B( 11-C , 29-H ) :   0.9733 B( 11-C , 30-H ) :   0.9737 B( 11-C , 31-H ) :   0.9702 
B( 12-C , 13-O ) :   1.0967 B( 12-C , 14-O ) :   1.8864 B( 13-O , 14-O ) :   0.2632 
B( 13-O , 32-H ) :   0.8774 

-------
TIMINGS
-------

Total SCF time: 0 days 0 hours 0 min 8 sec 

Total time                  ....       8.307 sec
Sum of individual times     ....       8.147 sec  ( 98.1%)

Fock matrix formation       ....       7.384 sec  ( 88.9%)
  Split-RI-J                ....       1.654 sec  ( 22.4% of F)
  XC integration            ....       2.475 sec  ( 33.5% of F)
    Basis function eval.    ....       1.204 sec  ( 48.6% of XC)
    Density eval.           ....       0.609 sec  ( 24.6% of XC)
    XC-Functional eval.     ....       0.303 sec  ( 12.2% of XC)
    XC-Potential eval.      ....       0.165 sec  (  6.7% of XC)
Diagonalization             ....       0.001 sec  (  0.0%)
Density matrix formation    ....       0.000 sec  (  0.0%)
Population analysis         ....       0.010 sec  (  0.1%)
Initial guess               ....       0.001 sec  (  0.0%)
Orbital Transformation      ....       0.000 sec  (  0.0%)
Orbital Orthonormalization  ....       0.001 sec  (  0.0%)
DIIS solution               ....       0.001 sec  (  0.0%)
SOSCF solution              ....       0.006 sec  (  0.1%)
Grid generation             ....       0.744 sec  (  9.0%)

Maximum memory used throughout the entire SCF-calculation: 74.1 MB

-------------------------   --------------------
FINAL SINGLE POINT ENERGY      -647.699540025619
-------------------------   --------------------

                                *** OPTIMIZATION RUN DONE ***

                            ***************************************
                            *     ORCA property calculations      *
                            ***************************************

                                    ---------------------
                                    Active property flags
                                    ---------------------
   (+) Dipole Moment


------------------------------------------------------------------------------
                       ORCA ELECTRIC PROPERTIES CALCULATION
------------------------------------------------------------------------------

Dipole Moment Calculation                       ... on
Quadrupole Moment Calculation                   ... off
Polarizability Calculation                      ... off
GBWName                                         ... Ibuprofeno\Ibuprofeno_PBE_STO-3G\Ibuprofeno_PBE_STO-3G.orcainp.gbw
Electron density                                ... Ibuprofeno\Ibuprofeno_PBE_STO-3G\Ibuprofeno_PBE_STO-3G.orcainp.scfp
The origin for moment calculation is the CENTER OF MASS  = (11.571738,  2.103295  2.971404)

-------------
DIPOLE MOMENT
-------------
                                X             Y             Z
Electronic contribution:     20.11835       2.08014      -0.58146
Nuclear contribution   :    -21.49360      -2.81048       0.33946
                        -----------------------------------------
Total Dipole Moment    :     -1.37525      -0.73033      -0.24200
                        -----------------------------------------
Magnitude (a.u.)       :      1.57584
Magnitude (Debye)      :      4.00546



--------------------
Rotational spectrum 
--------------------
 
Rotational constants in cm-1:     0.046477     0.008320     0.007818 
Rotational constants in MHz :  1393.355374   249.415650   234.386314 

 Dipole components along the rotational axes: 
x,y,z [a.u.] :    -1.396853    -0.703057    -0.194368 
x,y,z [Debye]:    -3.550519    -1.787030    -0.494044 

 

Timings for individual modules:

Sum of individual times         ...      227.092 sec (=   3.785 min)
GTO integral calculation        ...        1.710 sec (=   0.028 min)   0.8 %
SCF iterations                  ...      152.237 sec (=   2.537 min)  67.0 %
SCF Gradient evaluation         ...       71.983 sec (=   1.200 min)  31.7 %
Geometry relaxation             ...        1.162 sec (=   0.019 min)   0.5 %
                             ****ORCA TERMINATED NORMALLY****
TOTAL RUN TIME: 0 days 0 hours 3 minutes 48 seconds 433 msec
