
                                 *****************
                                 * O   R   C   A *
                                 *****************

                                            #,                                       
                                            ###                                      
                                            ####                                     
                                            #####                                    
                                            ######                                   
                                           ########,                                 
                                     ,,################,,,,,                         
                               ,,#################################,,                 
                          ,,##########################################,,             
                       ,#########################################, ''#####,          
                    ,#############################################,,   '####,        
                  ,##################################################,,,,####,       
                ,###########''''           ''''###############################       
              ,#####''   ,,,,##########,,,,          '''####'''          '####       
            ,##' ,,,,###########################,,,                        '##       
           ' ,,###''''                  '''############,,,                           
         ,,##''                                '''############,,,,        ,,,,,,###''
      ,#''                                            '''#######################'''  
     '                                                          ''''####''''         
             ,#######,   #######,   ,#######,      ##                                
            ,#'     '#,  ##    ##  ,#'     '#,    #''#        ######   ,####,        
            ##       ##  ##   ,#'  ##            #'  '#       #        #'  '#        
            ##       ##  #######   ##           ,######,      #####,   #    #        
            '#,     ,#'  ##    ##  '#,     ,#' ,#      #,         ##   #,  ,#        
             '#######'   ##     ##  '#######'  #'      '#     #####' # '####'        



                  #######################################################
                  #                        -***-                        #
                  #          Department of theory and spectroscopy      #
                  #    Directorship and core code : Frank Neese         #
                  #        Max Planck Institute fuer Kohlenforschung    #
                  #                Kaiser Wilhelm Platz 1               #
                  #                 D-45470 Muelheim/Ruhr               #
                  #                      Germany                        #
                  #                                                     #
                  #                  All rights reserved                #
                  #                        -***-                        #
                  #######################################################



                         Program Version 5.0.4 -  RELEASE  -

 With contributions from (in alphabetic order):
   Daniel Aravena         : Magnetic Suceptibility
   Michael Atanasov       : Ab Initio Ligand Field Theory (pilot matlab implementation)
   Alexander A. Auer      : GIAO ZORA, VPT2 properties, NMR spectrum
   Ute Becker             : Parallelization
   Giovanni Bistoni       : ED, misc. LED, open-shell LED, HFLD
   Martin Brehm           : Molecular dynamics
   Dmytro Bykov           : SCF Hessian
   Vijay G. Chilkuri      : MRCI spin determinant printing, contributions to CSF-ICE
   Dipayan Datta          : RHF DLPNO-CCSD density
   Achintya Kumar Dutta   : EOM-CC, STEOM-CC
   Dmitry Ganyushin       : Spin-Orbit,Spin-Spin,Magnetic field MRCI
   Miquel Garcia          : C-PCM and meta-GGA Hessian, CC/C-PCM, Gaussian charge scheme
   Yang Guo               : DLPNO-NEVPT2, F12-NEVPT2, CIM, IAO-localization
   Andreas Hansen         : Spin unrestricted coupled pair/coupled cluster methods
   Benjamin Helmich-Paris : MC-RPA, TRAH-SCF, COSX integrals
   Lee Huntington         : MR-EOM, pCC
   Robert Izsak           : Overlap fitted RIJCOSX, COSX-SCS-MP3, EOM
   Marcus Kettner         : VPT2
   Christian Kollmar      : KDIIS, OOCD, Brueckner-CCSD(T), CCSD density, CASPT2, CASPT2-K
   Simone Kossmann        : Meta GGA functionals, TD-DFT gradient, OOMP2, MP2 Hessian
   Martin Krupicka        : Initial AUTO-CI
   Lucas Lang             : DCDCAS
   Marvin Lechner         : AUTO-CI (C++ implementation), FIC-MRCC
   Dagmar Lenk            : GEPOL surface, SMD
   Dimitrios Liakos       : Extrapolation schemes; Compound Job, initial MDCI parallelization
   Dimitrios Manganas     : Further ROCIS development; embedding schemes
   Dimitrios Pantazis     : SARC Basis sets
   Anastasios Papadopoulos: AUTO-CI, single reference methods and gradients
   Taras Petrenko         : DFT Hessian,TD-DFT gradient, ASA, ECA, R-Raman, ABS, FL, XAS/XES, NRVS
   Peter Pinski           : DLPNO-MP2, DLPNO-MP2 Gradient
   Christoph Reimann      : Effective Core Potentials
   Marius Retegan         : Local ZFS, SOC
   Christoph Riplinger    : Optimizer, TS searches, QM/MM, DLPNO-CCSD(T), (RO)-DLPNO pert. Triples
   Tobias Risthaus        : Range-separated hybrids, TD-DFT gradient, RPA, STAB
   Michael Roemelt        : Original ROCIS implementation
   Masaaki Saitow         : Open-shell DLPNO-CCSD energy and density
   Barbara Sandhoefer     : DKH picture change effects
   Avijit Sen             : IP-ROCIS
   Kantharuban Sivalingam : CASSCF convergence, NEVPT2, FIC-MRCI
   Bernardo de Souza      : ESD, SOC TD-DFT
   Georgi Stoychev        : AutoAux, RI-MP2 NMR, DLPNO-MP2 response
   Willem Van den Heuvel  : Paramagnetic NMR
   Boris Wezisla          : Elementary symmetry handling
   Frank Wennmohs         : Technical directorship


 We gratefully acknowledge several colleagues who have allowed us to
 interface, adapt or use parts of their codes:
   Stefan Grimme, W. Hujo, H. Kruse, P. Pracht,  : VdW corrections, initial TS optimization,
                  C. Bannwarth, S. Ehlert          DFT functionals, gCP, sTDA/sTD-DF
   Ed Valeev, F. Pavosevic, A. Kumar             : LibInt (2-el integral package), F12 methods
   Garnet Chan, S. Sharma, J. Yang, R. Olivares  : DMRG
   Ulf Ekstrom                                   : XCFun DFT Library
   Mihaly Kallay                                 : mrcc  (arbitrary order and MRCC methods)
   Jiri Pittner, Ondrej Demel                    : Mk-CCSD
   Frank Weinhold                                : gennbo (NPA and NBO analysis)
   Christopher J. Cramer and Donald G. Truhlar   : smd solvation model
   Lars Goerigk                                  : TD-DFT with DH, B97 family of functionals
   V. Asgeirsson, H. Jonsson                     : NEB implementation
   FAccTs GmbH                                   : IRC, NEB, NEB-TS, DLPNO-Multilevel, CI-OPT
                                                   MM, QMMM, 2- and 3-layer-ONIOM, Crystal-QMMM,
                                                   LR-CPCM, SF, NACMEs, symmetry and pop. for TD-DFT,
                                                   nearIR, NL-DFT gradient (VV10), updates on ESD,
                                                   ML-optimized integration grids
   S Lehtola, MJT Oliveira, MAL Marques          : LibXC Library
   Liviu Ungur et al                             : ANISO software


 Your calculation uses the libint2 library for the computation of 2-el integrals
 For citations please refer to: http://libint.valeyev.net

 Your ORCA version has been built with support for libXC version: 5.1.0
 For citations please refer to: https://tddft.org/programs/libxc/

 This ORCA versions uses:
   CBLAS   interface :  Fast vector & matrix operations
   LAPACKE interface :  Fast linear algebra routines
   Shared memory     :  Shared parallel matrices


================================================================================

----- Orbital basis set information -----
Your calculation utilizes the basis: 6-311+G**
   H, Li - Ne  : R. Krishnan, J. S. Binkley, R. Seeger and J. A. Pople, J. Chem. Phys. 72, 650 (1980).
   Na - Ar     : A. D. McLean and G. S. Chandler J. Chem. Phys. 72, 5639, (1980).
   K  - Ca     : J.-P. Blaudeau, M. P. McGrath, L. A. Curtiss and L. Radom, J. Chem. Phys. 107, 5016 (1997).
   Ga - Kr     : L. A. Curtiss, M. P. McGrath, J.-P. Blandeau, N. E. Davis, R. C. Binning and L. Radom, J. Chem. Phys. 103, 6104 (1995).
   Pol./Diff.
   H, Li - Cl  : T. Clark, J. Chandrasekhar and P. v. R. Schleyer, J. Comp. Chem. 4, 294 (1983).
   H - Ne      : M. J. Frisch, J. A. Pople and J. S. Binkley, J. Chem. Phys. 80, 3265 (1984).

----- AuxJ basis set information -----
Your calculation utilizes the auxiliary basis: def2/J
   F. Weigend, Phys. Chem. Chem. Phys. 8, 1057 (2006).

================================================================================
                                        WARNINGS
                       Please study these warnings very carefully!
================================================================================


WARNING: Geometry Optimization
  ===> : Switching off AutoStart
         For restart on a previous wavefunction, please use MOREAD

INFO   : the flag for use of the SHARK integral package has been found!

================================================================================
                                       INPUT FILE
================================================================================
NAME = Ibuprofeno\Ibuprofeno_B3LYP_6-311+G\Ibuprofeno_B3LYP_6-311+G.orcainp
|  1> # ORCA input file
|  2> # 
|  3> !B3LYP 6-311+G** Opt CPCM(WATER)
|  4> 
|  5> * xyz 0 1
|  6>    C        2.87144        -0.10916         1.20664
|  7>    C        2.44342        -1.05593         0.08115
|  8>    C        0.91974        -1.19419         0.07432
|  9>    C        2.94480        -0.57785        -1.29683
| 10>    C        4.45134        -0.46700        -1.37799
| 11>    C        5.26061        -1.59748        -1.21919
| 12>    C        6.65296        -1.48545        -1.25067
| 13>    C        7.26777        -0.24306        -1.46506
| 14>    C        6.45170         0.88684        -1.63168
| 15>    C        5.06022         0.77519        -1.58829
| 16>    C        8.78513        -0.15735        -1.56149
| 17>    C        9.18945         0.36486        -2.94449
| 18>    C        9.50143         0.64581        -0.48409
| 19>    O        8.76334         1.05753         0.57059
| 20>    O       10.70370         0.88871        -0.52753
| 21>    H        2.51153        -0.47336         2.17409
| 22>    H        2.47169         0.89803         1.05021
| 23>    H        3.96146        -0.03527         1.27587
| 24>    H        2.86352        -2.04692         0.29439
| 25>    H        0.43276        -0.23517        -0.13272
| 26>    H        0.56053        -1.55246         1.04510
| 27>    H        0.59584        -1.91197        -0.68619
| 28>    H        2.48660         0.39047        -1.53921
| 29>    H        2.61106        -1.27192        -2.07930
| 30>    H        4.81160        -2.57672        -1.06755
| 31>    H        7.24935        -2.38734        -1.12491
| 32>    H        6.88909         1.86918        -1.80559
| 33>    H        4.45363         1.66833        -1.72028
| 34>    H        9.18533        -1.17571        -1.46024
| 35>    H        8.84885         1.39480        -3.10544
| 36>    H        8.76335        -0.25851        -3.73883
| 37>    H       10.27752         0.36437        -3.06623
| 38>    H        7.82131         0.79140         0.54207
| 39> *
| 40> 
| 41>                          ****END OF INPUT****
================================================================================

                       *****************************
                       * Geometry Optimization Run *
                       *****************************

Geometry optimization settings:
Update method            Update   .... BFGS
Choice of coordinates    CoordSys .... Z-matrix Internals
Initial Hessian          InHess   .... Almoef's Model

Convergence Tolerances:
Energy Change            TolE     ....  5.0000e-06 Eh
Max. Gradient            TolMAXG  ....  3.0000e-04 Eh/bohr
RMS Gradient             TolRMSG  ....  1.0000e-04 Eh/bohr
Max. Displacement        TolMAXD  ....  4.0000e-03 bohr
RMS Displacement         TolRMSD  ....  2.0000e-03 bohr
Strict Convergence                ....  False
------------------------------------------------------------------------------
                        ORCA OPTIMIZATION COORDINATE SETUP
------------------------------------------------------------------------------

The optimization will be done in new redundant internal coordinates
Making redundant internal coordinates   ...  (new redundants) done
Evaluating the initial hessian          ...  (Almloef) done
Evaluating the coordinates              ...  done
Calculating the B-matrix                .... done
Calculating the G-matrix                .... done
Diagonalizing the G-matrix              .... done
Small eigenvalue found = 1.040e-02
Small eigenvalue found = 1.967e-02
Small eigenvalue found = 2.599e-02
Small eigenvalue found = 2.920e-02
The first mode is                       ....   79
The number of degrees of freedom        ....   93

    -----------------------------------------------------------------
                    Redundant Internal Coordinates


    -----------------------------------------------------------------
         Definition                    Initial Value    Approx d2E/dq
    -----------------------------------------------------------------
      1. B(C   1,C   0)                  1.5318         0.371161   
      2. B(C   2,C   1)                  1.5300         0.373636   
      3. B(C   3,C   1)                  1.5423         0.357035   
      4. B(C   4,C   3)                  1.5128         0.397954   
      5. B(C   5,C   4)                  1.3993         0.603748   
      6. B(C   6,C   5)                  1.3972         0.608477   
      7. B(C   7,C   6)                  1.4027         0.596379   
      8. B(C   8,C   7)                  1.4037         0.594104   
      9. B(C   9,C   8)                  1.3966         0.609771   
     10. B(C   9,C   4)                  1.3993         0.603845   
     11. B(C  10,C   7)                  1.5228         0.383538   
     12. B(C  11,C  10)                  1.5326         0.370022   
     13. B(C  12,C  10)                  1.5228         0.383577   
     14. B(O  13,C  12)                  1.3515         0.644537   
     15. B(O  14,C  12)                  1.2273         1.017194   
     16. B(H  15,C   0)                  1.0946         0.354074   
     17. B(H  16,C   0)                  1.0949         0.353738   
     18. B(H  17,C   0)                  1.0947         0.353919   
     19. B(H  18,C   1)                  1.0973         0.350601   
     20. B(H  19,C   2)                  1.0953         0.353126   
     21. B(H  20,C   2)                  1.0954         0.353085   
     22. B(H  21,C   2)                  1.0948         0.353861   
     23. B(H  22,C   3)                  1.0983         0.349241   
     24. B(H  23,C   3)                  1.0979         0.349805   
     25. B(H  24,C   5)                  1.0879         0.362895   
     26. B(H  25,C   6)                  1.0885         0.362047   
     27. B(H  26,C   8)                  1.0893         0.361044   
     28. B(H  27,C   9)                  1.0877         0.363167   
     29. B(H  28,C  10)                  1.0988         0.348582   
     30. B(H  29,C  11)                  1.0967         0.351381   
     31. B(H  30,C  11)                  1.0960         0.352302   
     32. B(H  31,C  11)                  1.0949         0.353729   
     33. B(H  32,H  17)                  4.0150         0.000001   
     34. B(H  32,O  13)                  0.9793         0.484340   
     35. A(C   1,C   0,H  15)          110.6027         0.323078   
     36. A(H  15,C   0,H  17)          107.0952         0.289284   
     37. A(C   1,C   0,H  17)          111.4949         0.323055   
     38. A(H  16,C   0,H  17)          108.0891         0.289240   
     39. A(C   1,C   0,H  16)          111.1982         0.323028   
     40. A(H  15,C   0,H  16)          108.1987         0.289260   
     41. A(C   0,C   1,C   3)          111.9652         0.360156   
     42. A(C   2,C   1,H  18)          107.4900         0.322908   
     43. A(C   2,C   1,C   3)          110.3510         0.360564   
     44. A(C   3,C   1,H  18)          109.2152         0.320514   
     45. A(C   0,C   1,H  18)          107.9657         0.322556   
     46. A(C   0,C   1,C   2)          109.7197         0.362959   
     47. A(C   1,C   2,H  19)          111.3766         0.323288   
     48. A(H  20,C   2,H  21)          107.7100         0.289149   
     49. A(C   1,C   2,H  20)          110.6217         0.323282   
     50. A(H  19,C   2,H  21)          108.1322         0.289155   
     51. A(C   1,C   2,H  21)          110.9162         0.323398   
     52. A(H  19,C   2,H  20)          107.9448         0.289055   
     53. A(C   1,C   3,H  23)          109.9974         0.320395   
     54. A(C   4,C   3,H  22)          109.8167         0.326062   
     55. A(H  22,C   3,H  23)          105.8581         0.288134   
     56. A(C   1,C   3,C   4)          113.2275         0.364467   
     57. A(C   1,C   3,H  22)          109.5621         0.320311   
     58. A(C   4,C   3,H  23)          108.1082         0.326148   
     59. A(C   5,C   4,C   9)          118.8540         0.429954   
     60. A(C   3,C   4,C   5)          120.7073         0.399247   
     61. A(C   3,C   4,C   9)          120.4277         0.399259   
     62. A(C   4,C   5,C   6)          120.5962         0.430544   
     63. A(C   6,C   5,H  24)          119.1182         0.352251   
     64. A(C   4,C   5,H  24)          120.2855         0.351787   
     65. A(C   5,C   6,C   7)          120.7474         0.429596   
     66. A(C   7,C   6,H  25)          120.7555         0.350918   
     67. A(C   5,C   6,H  25)          118.4860         0.352112   
     68. A(C   8,C   7,C  10)          121.7662         0.395548   
     69. A(C   6,C   7,C  10)          119.7534         0.395813   
     70. A(C   6,C   7,C   8)          118.4427         0.427758   
     71. A(C   9,C   8,H  26)          118.4970         0.352073   
     72. A(C   7,C   8,C   9)          120.7429         0.429465   
     73. A(C   7,C   8,H  26)          120.7584         0.350528   
     74. A(C   4,C   9,C   8)          120.6086         0.430721   
     75. A(C   4,C   9,H  27)          120.2992         0.351841   
     76. A(C   8,C   9,H  27)          119.0923         0.352422   
     77. A(C   7,C  10,C  11)          109.8271         0.364394   
     78. A(C  12,C  10,H  28)          104.6127         0.323995   
     79. A(C  11,C  10,H  28)          107.6285         0.322089   
     80. A(C   7,C  10,H  28)          107.7518         0.323990   
     81. A(C  11,C  10,C  12)          109.5509         0.364401   
     82. A(C   7,C  10,C  12)          116.9732         0.366646   
     83. A(H  30,C  11,H  31)          107.7904         0.289032   
     84. A(H  29,C  11,H  31)          107.0228         0.288913   
     85. A(C  10,C  11,H  31)          111.2454         0.322864   
     86. A(H  29,C  11,H  30)          107.8820         0.288731   
     87. A(C  10,C  11,H  30)          110.9570         0.322650   
     88. A(C  10,C  11,H  29)          111.7467         0.322511   
     89. A(O  13,C  12,O  14)          120.1518         0.472006   
     90. A(C  10,C  12,O  14)          122.6916         0.432383   
     91. A(C  10,C  12,O  13)          117.1228         0.398691   
     92. A(C  12,O  13,H  32)          114.8227         0.368078   
     93. D(H  18,C   1,C   0,H  16)   -179.5188         0.011008   
     94. D(H  18,C   1,C   0,H  17)     59.7736         0.011008   
     95. D(C   2,C   1,C   0,H  16)    -62.6561         0.011008   
     96. D(C   3,C   1,C   0,H  15)   -179.5306         0.011008   
     97. D(C   2,C   1,C   0,H  17)    176.6363         0.011008   
     98. D(C   2,C   1,C   0,H  15)     57.5868         0.011008   
     99. D(C   3,C   1,C   0,H  16)     60.2264         0.011008   
    100. D(C   3,C   1,C   0,H  17)    -60.4812         0.011008   
    101. D(H  18,C   1,C   0,H  15)    -59.2759         0.011008   
    102. D(H  19,C   2,C   1,C   3)    -61.0575         0.011147   
    103. D(H  19,C   2,C   1,H  18)    179.9351         0.011147   
    104. D(H  21,C   2,C   1,C   0)   -176.7368         0.011147   
    105. D(H  20,C   2,C   1,C   3)    178.8889         0.011147   
    106. D(H  20,C   2,C   1,H  18)     59.8815         0.011147   
    107. D(H  21,C   2,C   1,H  18)    -59.5758         0.011147   
    108. D(H  21,C   2,C   1,C   3)     59.4317         0.011147   
    109. D(H  19,C   2,C   1,C   0)     62.7741         0.011147   
    110. D(H  20,C   2,C   1,C   0)    -57.2795         0.011147   
    111. D(H  23,C   3,C   1,C   2)    -56.8354         0.010239   
    112. D(H  23,C   3,C   1,C   0)   -179.3594         0.010239   
    113. D(H  22,C   3,C   1,H  18)    177.0880         0.010239   
    114. D(H  22,C   3,C   1,C   2)     59.1356         0.010239   
    115. D(H  22,C   3,C   1,C   0)    -63.3884         0.010239   
    116. D(C   4,C   3,C   1,H  18)    -59.9547         0.010239   
    117. D(C   4,C   3,C   1,C   2)   -177.9072         0.010239   
    118. D(H  23,C   3,C   1,H  18)     61.1170         0.010239   
    119. D(C   4,C   3,C   1,C   0)     59.5689         0.010239   
    120. D(C   9,C   4,C   3,C   1)   -116.3071         0.011759   
    121. D(C   5,C   4,C   3,H  23)    -59.6628         0.011759   
    122. D(C   5,C   4,C   3,H  22)   -174.7141         0.011759   
    123. D(C   5,C   4,C   3,C   1)     62.4696         0.011759   
    124. D(C   9,C   4,C   3,H  23)    121.5606         0.011759   
    125. D(C   9,C   4,C   3,H  22)      6.5092         0.011759   
    126. D(H  24,C   5,C   4,C   9)   -179.1927         0.025146   
    127. D(H  24,C   5,C   4,C   3)      2.0116         0.025146   
    128. D(C   6,C   5,C   4,C   9)      0.9153         0.025146   
    129. D(C   6,C   5,C   4,C   3)   -177.8804         0.025146   
    130. D(H  25,C   6,C   5,H  24)      0.1930         0.025563   
    131. D(H  25,C   6,C   5,C   4)   -179.9137         0.025563   
    132. D(C   7,C   6,C   5,C   4)     -1.1184         0.025563   
    133. D(C   7,C   6,C   5,H  24)    178.9883         0.025563   
    134. D(C  10,C   7,C   6,H  25)      1.6854         0.024503   
    135. D(C  10,C   7,C   6,C   5)   -177.0825         0.024503   
    136. D(C   8,C   7,C   6,H  25)    179.4940         0.024503   
    137. D(C   8,C   7,C   6,C   5)      0.7262         0.024503   
    138. D(H  26,C   8,C   7,C  10)     -1.9115         0.024307   
    139. D(H  26,C   8,C   7,C   6)   -179.6738         0.024307   
    140. D(C   9,C   8,C   7,C  10)    177.6007         0.024307   
    141. D(C   9,C   8,C   7,C   6)     -0.1616         0.024307   
    142. D(H  27,C   9,C   8,H  26)     -0.5020         0.025678   
    143. D(H  27,C   9,C   8,C   7)    179.9750         0.025678   
    144. D(C   4,C   9,C   8,H  26)    179.5031         0.025678   
    145. D(C   4,C   9,C   8,C   7)     -0.0200         0.025678   
    146. D(H  27,C   9,C   4,C   5)    179.6538         0.025154   
    147. D(H  27,C   9,C   4,C   3)     -1.5471         0.025154   
    148. D(C   8,C   9,C   4,C   5)     -0.3513         0.025154   
    149. D(C   8,C   9,C   4,C   3)    178.4478         0.025154   
    150. D(H  28,C  10,C   7,C   6)      1.3221         0.010964   
    151. D(C  12,C  10,C   7,C   8)     66.1910         0.010964   
    152. D(C  12,C  10,C   7,C   6)   -116.0754         0.010964   
    153. D(C  11,C  10,C   7,C   8)    -59.4463         0.010964   
    154. D(H  28,C  10,C   7,C   8)   -176.4116         0.010964   
    155. D(C  11,C  10,C   7,C   6)    118.2873         0.010964   
    156. D(H  31,C  11,C  10,H  28)    -58.6716         0.010945   
    157. D(H  31,C  11,C  10,C   7)   -175.7140         0.010945   
    158. D(H  30,C  11,C  10,H  28)     61.3246         0.010945   
    159. D(H  30,C  11,C  10,C  12)    174.5130         0.010945   
    160. D(H  30,C  11,C  10,C   7)    -55.7179         0.010945   
    161. D(H  29,C  11,C  10,H  28)   -178.2259         0.010945   
    162. D(H  31,C  11,C  10,C  12)     54.5168         0.010945   
    163. D(H  29,C  11,C  10,C  12)    -65.0375         0.010945   
    164. D(H  29,C  11,C  10,C   7)     64.7316         0.010945   
    165. D(O  14,C  12,C  10,H  28)     67.9025         0.010967   
    166. D(O  14,C  12,C  10,C  11)    -47.2292         0.010967   
    167. D(O  14,C  12,C  10,C   7)   -173.0041         0.010967   
    168. D(O  13,C  12,C  10,H  28)   -109.9809         0.010967   
    169. D(O  13,C  12,C  10,C  11)    134.8874         0.010967   
    170. D(O  13,C  12,C  10,C   7)      9.1125         0.010967   
    171. D(H  32,O  13,C  12,O  14)   -177.6843         0.030660   
    172. D(H  32,O  13,C  12,C  10)      0.2557         0.030660   
    -----------------------------------------------------------------

Number of atoms                         .... 33
Number of degrees of freedom            .... 172

         *************************************************************
         *                GEOMETRY OPTIMIZATION CYCLE   1            *
         *************************************************************
---------------------------------
CARTESIAN COORDINATES (ANGSTROEM)
---------------------------------
  C      2.871440   -0.109160    1.206640
  C      2.443420   -1.055930    0.081150
  C      0.919740   -1.194190    0.074320
  C      2.944800   -0.577850   -1.296830
  C      4.451340   -0.467000   -1.377990
  C      5.260610   -1.597480   -1.219190
  C      6.652960   -1.485450   -1.250670
  C      7.267770   -0.243060   -1.465060
  C      6.451700    0.886840   -1.631680
  C      5.060220    0.775190   -1.588290
  C      8.785130   -0.157350   -1.561490
  C      9.189450    0.364860   -2.944490
  C      9.501430    0.645810   -0.484090
  O      8.763340    1.057530    0.570590
  O     10.703700    0.888710   -0.527530
  H      2.511530   -0.473360    2.174090
  H      2.471690    0.898030    1.050210
  H      3.961460   -0.035270    1.275870
  H      2.863520   -2.046920    0.294390
  H      0.432760   -0.235170   -0.132720
  H      0.560530   -1.552460    1.045100
  H      0.595840   -1.911970   -0.686190
  H      2.486600    0.390470   -1.539210
  H      2.611060   -1.271920   -2.079300
  H      4.811600   -2.576720   -1.067550
  H      7.249350   -2.387340   -1.124910
  H      6.889090    1.869180   -1.805590
  H      4.453630    1.668330   -1.720280
  H      9.185330   -1.175710   -1.460240
  H      8.848850    1.394800   -3.105440
  H      8.763350   -0.258510   -3.738830
  H     10.277520    0.364370   -3.066230
  H      7.821310    0.791400    0.542070

----------------------------
CARTESIAN COORDINATES (A.U.)
----------------------------
  NO LB      ZA    FRAG     MASS         X           Y           Z
   0 C     6.0000    0    12.011    5.426235   -0.206283    2.280219
   1 C     6.0000    0    12.011    4.617395   -1.995419    0.153351
   2 C     6.0000    0    12.011    1.738057   -2.256692    0.140444
   3 C     6.0000    0    12.011    5.564866   -1.091978   -2.450654
   4 C     6.0000    0    12.011    8.411814   -0.882502   -2.604024
   5 C     6.0000    0    12.011    9.941112   -3.018800   -2.303935
   6 C     6.0000    0    12.011   12.572272   -2.807094   -2.363424
   7 C     6.0000    0    12.011   13.734095   -0.459317   -2.768562
   8 C     6.0000    0    12.011   12.191946    1.675885   -3.083428
   9 C     6.0000    0    12.011    9.562430    1.464897   -3.001433
  10 C     6.0000    0    12.011   16.601490   -0.297348   -2.950788
  11 C     6.0000    0    12.011   17.365544    0.689485   -5.564280
  12 C     6.0000    0    12.011   17.955101    1.220404   -0.914798
  13 O     8.0000    0    15.999   16.560313    1.998442    1.078259
  14 O     8.0000    0    15.999   20.227062    1.679419   -0.996887
  15 H     1.0000    0     1.008    4.746104   -0.894521    4.108435
  16 H     1.0000    0     1.008    4.670817    1.697031    1.984609
  17 H     1.0000    0     1.008    7.486074   -0.066651    2.411045
  18 H     1.0000    0     1.008    5.411269   -3.868118    0.556316
  19 H     1.0000    0     1.008    0.817798   -0.444407   -0.250804
  20 H     1.0000    0     1.008    1.059248   -2.933724    1.974953
  21 H     1.0000    0     1.008    1.125974   -3.613100   -1.296711
  22 H     1.0000    0     1.008    4.698993    0.737881   -2.908685
  23 H     1.0000    0     1.008    4.934188   -2.403580   -3.929308
  24 H     1.0000    0     1.008    9.092606   -4.869295   -2.017377
  25 H     1.0000    0     1.008   13.699286   -4.511419   -2.125772
  26 H     1.0000    0     1.008   13.018493    3.532238   -3.412071
  27 H     1.0000    0     1.008    8.416141    3.152687   -3.250858
  28 H     1.0000    0     1.008   17.357758   -2.221770   -2.759454
  29 H     1.0000    0     1.008   16.721903    2.635790   -5.868431
  30 H     1.0000    0     1.008   16.560332   -0.488513   -7.065365
  31 H     1.0000    0     1.008   19.421698    0.688560   -5.794335
  32 H     1.0000    0     1.008   14.780134    1.495529    1.024364

--------------------------------
INTERNAL COORDINATES (ANGSTROEM)
--------------------------------
 C      0   0   0     0.000000000000     0.00000000     0.00000000
 C      1   0   0     1.531764437960     0.00000000     0.00000000
 C      2   1   0     1.529955299641   109.71973206     0.00000000
 C      2   1   3     1.542326577350   111.96519660   122.88251102
 C      4   2   1     1.512791274334   113.22748451    59.56887438
 C      5   4   2     1.399328554450   120.70728660    62.46955018
 C      6   5   4     1.397204435221   120.59622258   182.11960192
 C      7   6   5     1.402671494078   120.74737498   358.88155506
 C      8   7   6     1.403711679548   118.44273519     0.72615693
 C      9   8   7     1.396626293967   120.74293145   359.83837370
 C      8   7   6     1.522834961051   119.75340072   182.91749932
 C     11   8   7     1.532601365816   109.82714393   118.28729088
 C     11   8   7     1.522807419078   116.97319568   243.92464244
 O     13  11   8     1.351532503827   117.12275651     9.11247001
 O     13  11   8     1.227330679361   122.69156655   186.99590401
 H      1   2   3     1.094594148806   110.60270271    57.58684016
 H      1   2   3     1.094852548748   111.19821006   297.34386030
 H      1   2   3     1.094712804986   111.49486478   176.63628257
 H      2   1   3     1.097276850982   107.96568424   243.13730192
 H      3   2   1     1.095323898397   111.37658755    62.77406767
 H      3   2   1     1.095355205128   110.62166734   302.72048343
 H      3   2   1     1.094757872089   110.91622606   183.26323173
 H      4   2   1     1.098334615133   109.56212912   296.61159631
 H      4   2   1     1.097895647774   109.99744673   180.64063390
 H      6   5   4     1.087895053440   120.28550824     2.01160704
 H      7   6   5     1.088532122539   118.48603852   180.08625382
 H      9   8   7     1.089287187017   120.75836235   180.32618116
 H     10   9   8     1.087691062664   119.09225864   179.97499741
 H     11   8   7     1.098848803112   107.75183126     1.32205913
 H     12  11   8     1.096672086861   111.74665593    64.73164267
 H     12  11   8     1.095959580687   110.95695803   304.28213132
 H     12  11   8     1.094859439654   111.24538776   184.28599748
 H     14  13  11     0.979315622361   114.82266837     0.25572160

---------------------------
INTERNAL COORDINATES (A.U.)
---------------------------
 C      0   0   0     0.000000000000     0.00000000     0.00000000
 C      1   0   0     2.894615289425     0.00000000     0.00000000
 C      2   1   0     2.891196513463   109.71973206     0.00000000
 C      2   1   3     2.914574840260   111.96519660   122.88251102
 C      4   2   1     2.858761206276   113.22748451    59.56887438
 C      5   4   2     2.644347739287   120.70728660    62.46955018
 C      6   5   4     2.640333735667   120.59622258   182.11960192
 C      7   6   5     2.650664979666   120.74737498   358.88155506
 C      8   7   6     2.652630645333   118.44273519     0.72615693
 C      9   8   7     2.639241207031   120.74293145   359.83837370
 C      8   7   6     2.877741023548   119.75340072   182.91749932
 C     11   8   7     2.896196853865   109.82714393   118.28729088
 C     11   8   7     2.877688976761   116.97319568   243.92464244
 O     13  11   8     2.554026293325   117.12275651     9.11247001
 O     13  11   8     2.319318859751   122.69156655   186.99590401
 H      1   2   3     2.068483169036   110.60270271    57.58684016
 H      1   2   3     2.068971474159   111.19821006   297.34386030
 H      1   2   3     2.068707396720   111.49486478   176.63628257
 H      2   1   3     2.073552741447   107.96568424   243.13730192
 H      3   2   1     2.069862195910   111.37658755    62.77406767
 H      3   2   1     2.069921357056   110.62166734   302.72048343
 H      3   2   1     2.068792561202   110.91622606   183.26323173
 H      4   2   1     2.075551626008   109.56212912   296.61159631
 H      4   2   1     2.074722097916   109.99744673   180.64063390
 H      6   5   4     2.055823713450   120.28550824     2.01160704
 H      7   6   5     2.057027599575   118.48603852   180.08625382
 H      9   8   7     2.058454464652   120.75836235   180.32618116
 H     10   9   8     2.055438226749   119.09225864   179.97499741
 H     11   8   7     2.076523300468   107.75183126     1.32205913
 H     12  11   8     2.072409902883   111.74665593    64.73164267
 H     12  11   8     2.071063461346   110.95695803   304.28213132
 H     12  11   8     2.068984496085   111.24538776   184.28599748
 H     14  13  11     1.850638324933   114.82266837     0.25572160

---------------------
BASIS SET INFORMATION
---------------------
There are 3 groups of distinct atoms

 Group   1 Type C   : 12s6p1d contracted to 5s4p1d pattern {63111/3111/1}
 Group   2 Type O   : 12s6p1d contracted to 5s4p1d pattern {63111/3111/1}
 Group   3 Type H   : 5s1p contracted to 3s1p pattern {311/1}

Atom   0C    basis set group =>   1
Atom   1C    basis set group =>   1
Atom   2C    basis set group =>   1
Atom   3C    basis set group =>   1
Atom   4C    basis set group =>   1
Atom   5C    basis set group =>   1
Atom   6C    basis set group =>   1
Atom   7C    basis set group =>   1
Atom   8C    basis set group =>   1
Atom   9C    basis set group =>   1
Atom  10C    basis set group =>   1
Atom  11C    basis set group =>   1
Atom  12C    basis set group =>   1
Atom  13O    basis set group =>   2
Atom  14O    basis set group =>   2
Atom  15H    basis set group =>   3
Atom  16H    basis set group =>   3
Atom  17H    basis set group =>   3
Atom  18H    basis set group =>   3
Atom  19H    basis set group =>   3
Atom  20H    basis set group =>   3
Atom  21H    basis set group =>   3
Atom  22H    basis set group =>   3
Atom  23H    basis set group =>   3
Atom  24H    basis set group =>   3
Atom  25H    basis set group =>   3
Atom  26H    basis set group =>   3
Atom  27H    basis set group =>   3
Atom  28H    basis set group =>   3
Atom  29H    basis set group =>   3
Atom  30H    basis set group =>   3
Atom  31H    basis set group =>   3
Atom  32H    basis set group =>   3
---------------------------------
AUXILIARY/J BASIS SET INFORMATION
---------------------------------
There are 3 groups of distinct atoms

 Group   1 Type C   : 12s5p4d2f1g contracted to 6s4p3d1f1g pattern {711111/2111/211/2/1}
 Group   2 Type O   : 12s5p4d2f1g contracted to 6s4p3d1f1g pattern {711111/2111/211/2/1}
 Group   3 Type H   : 5s2p1d contracted to 3s1p1d pattern {311/2/1}

Atom   0C    basis set group =>   1
Atom   1C    basis set group =>   1
Atom   2C    basis set group =>   1
Atom   3C    basis set group =>   1
Atom   4C    basis set group =>   1
Atom   5C    basis set group =>   1
Atom   6C    basis set group =>   1
Atom   7C    basis set group =>   1
Atom   8C    basis set group =>   1
Atom   9C    basis set group =>   1
Atom  10C    basis set group =>   1
Atom  11C    basis set group =>   1
Atom  12C    basis set group =>   1
Atom  13O    basis set group =>   2
Atom  14O    basis set group =>   2
Atom  15H    basis set group =>   3
Atom  16H    basis set group =>   3
Atom  17H    basis set group =>   3
Atom  18H    basis set group =>   3
Atom  19H    basis set group =>   3
Atom  20H    basis set group =>   3
Atom  21H    basis set group =>   3
Atom  22H    basis set group =>   3
Atom  23H    basis set group =>   3
Atom  24H    basis set group =>   3
Atom  25H    basis set group =>   3
Atom  26H    basis set group =>   3
Atom  27H    basis set group =>   3
Atom  28H    basis set group =>   3
Atom  29H    basis set group =>   3
Atom  30H    basis set group =>   3
Atom  31H    basis set group =>   3
Atom  32H    basis set group =>   3
------------------------------------------------------------------------------
                           ORCA GTO INTEGRAL CALCULATION
                           -- RI-GTO INTEGRALS CHOSEN --
------------------------------------------------------------------------------
------------------------------------------------------------------------------
                   ___                                                        
                  /   \      - P O W E R E D   B Y -                         
                 /     \                                                     
                 |  |  |   _    _      __       _____    __    __             
                 |  |  |  | |  | |    /  \     |  _  \  |  |  /  |          
                  \  \/   | |  | |   /    \    | | | |  |  | /  /          
                 / \  \   | |__| |  /  /\  \   | |_| |  |  |/  /          
                |  |  |   |  __  | /  /__\  \  |    /   |      \           
                |  |  |   | |  | | |   __   |  |    \   |  |\   \          
                \     /   | |  | | |  |  |  |  | |\  \  |  | \   \       
                 \___/    |_|  |_| |__|  |__|  |_| \__\ |__|  \__/        
                                                                              
                      - O R C A' S   B I G   F R I E N D -                    
                                      &                                       
                       - I N T E G R A L  F E E D E R -                       
                                                                              
 v1 FN, 2020, v2 2021                                                         
------------------------------------------------------------------------------


Reading SHARK input file Ibuprofeno\Ibuprofeno_B3LYP_6-311+G\Ibuprofeno_B3LYP_6-311+G.orcainp.SHARKINP.tmp ... ok
----------------------
SHARK INTEGRAL PACKAGE
----------------------

Number of atoms                             ...     33
Number of basis functions                   ...    438
Number of shells                            ...    222
Maximum angular momentum                    ...      2
Integral batch strategy                     ... SHARK/LIBINT Hybrid
RI-J (if used) integral strategy            ... SPLIT-RIJ (Revised 2003 algorithm where possible)
Printlevel                                  ...      1
Contraction scheme used                     ... SEGMENTED contraction
Coulomb Range Separation                    ... NOT USED
Exchange Range Separation                   ... NOT USED
Finite Nucleus Model                        ... NOT USED
Auxiliary Coulomb fitting basis             ... AVAILABLE
   # of basis functions in Aux-J            ...    933
   # of shells in Aux-J                     ...    315
   Maximum angular momentum in Aux-J        ...      4
Auxiliary J/K fitting basis                 ... NOT available
Auxiliary Correlation fitting basis         ... NOT available
Auxiliary 'external' fitting basis          ... NOT available
Integral threshold                          ...     2.500000e-11
Primitive cut-off                           ...     2.500000e-12
Primitive pair pre-selection threshold      ...     2.500000e-12

Calculating pre-screening integrals         ... done (  0.0 sec) Dimension = 222
Organizing shell pair data                  ... done (  0.0 sec)
Shell pair information
Total number of shell pairs                 ...     24753
Shell pairs after pre-screening             ...     19692
Total number of primitive shell pairs       ...     77790
Primitive shell pairs kept                  ...     42786
          la=0 lb=0:   6562 shell pairs
          la=1 lb=0:   8097 shell pairs
          la=1 lb=1:   2558 shell pairs
          la=2 lb=0:   1468 shell pairs
          la=2 lb=1:    916 shell pairs
          la=2 lb=2:     91 shell pairs

Calculating one electron integrals          ... done (  0.0 sec)
Calculating RI/J V-Matrix + Cholesky decomp.... done (  0.0 sec)
Calculating Nuclear repulsion               ... done (  0.0 sec) ENN=    969.625574162888 Eh

SHARK setup successfully completed in   0.2 seconds

Maximum memory used throughout the entire GTOINT-calculation: 87.6 MB
-------------------------------------------------------------------------------
                                 ORCA SCF
-------------------------------------------------------------------------------

------------
SCF SETTINGS
------------
Hamiltonian:
 Density Functional     Method          .... DFT(GTOs)
 Exchange Functional    Exchange        .... B88
   X-Alpha parameter    XAlpha          ....  0.666667
   Becke's b parameter  XBeta           ....  0.004200
 Correlation Functional Correlation     .... LYP
 LDA part of GGA corr.  LDAOpt          .... VWN-5
 Gradients option       PostSCFGGA      .... off
 Hybrid DFT is turned on
   Fraction HF Exchange ScalHFX         ....  0.200000
   Scaling of DF-GGA-X  ScalDFX         ....  0.720000
   Scaling of DF-GGA-C  ScalDFC         ....  0.810000
   Scaling of DF-LDA-C  ScalLDAC        ....  1.000000
   Perturbative correction              ....  0.000000
   Density functional embedding theory  .... OFF
   NL short-range parameter             ....  4.800000
 RI-approximation to the Coulomb term is turned on
   Number of AuxJ basis functions       .... 933
   RIJ-COSX (HFX calculated with COS-X)).... on


General Settings:
 Integral files         IntName         .... Ibuprofeno\Ibuprofeno_B3LYP_6-311+G\Ibuprofeno_B3LYP_6-311+G.orcainp
 Hartree-Fock type      HFTyp           .... RHF
 Total Charge           Charge          ....    0
 Multiplicity           Mult            ....    1
 Number of Electrons    NEL             ....  112
 Basis Dimension        Dim             ....  438
 Nuclear Repulsion      ENuc            ....    969.6255741629 Eh

Convergence Acceleration:
 DIIS                   CNVDIIS         .... on
   Start iteration      DIISMaxIt       ....    12
   Startup error        DIISStart       ....  0.200000
   # of expansion vecs  DIISMaxEq       ....     5
   Bias factor          DIISBfac        ....   1.050
   Max. coefficient     DIISMaxC        ....  10.000
 Trust-Rad. Augm. Hess. CNVTRAH         .... auto
   Auto Start mean grad. ratio tolernc. ....  1.125000
   Auto Start start iteration           ....    20
   Auto Start num. interpolation iter.  ....    10
   Max. Number of Micro iterations      ....    16
   Max. Number of Macro iterations      .... Maxiter - #DIIS iter
   Number of Davidson start vectors     ....     2
   Converg. threshold I  (grad. norm)   ....   1.000e-05
   Converg. threshold II (energy diff.) ....   1.000e-08
   Grad. Scal. Fac. for Micro threshold ....   0.100
   Minimum threshold for Micro iter.    ....   0.010
   NR start threshold (gradient norm)   ....   0.001
   Initial trust radius                 ....   0.400
   Minimum AH scaling param. (alpha)    ....   1.000
   Maximum AH scaling param. (alpha)    .... 1000.000
   Orbital update algorithm             .... Taylor
   White noise on init. David. guess    .... on
   Maximum white noise                  ....   0.010
   Quad. conv. algorithm                .... NR
 SOSCF                  CNVSOSCF        .... on
   Start iteration      SOSCFMaxIt      ....   150
   Startup grad/error   SOSCFStart      ....  0.003300
 Level Shifting         CNVShift        .... on
   Level shift para.    LevelShift      ....    0.2500
   Turn off err/grad.   ShiftErr        ....    0.0010
 Zerner damping         CNVZerner       .... off
 Static damping         CNVDamp         .... on
   Fraction old density DampFac         ....    0.7000
   Max. Damping (<1)    DampMax         ....    0.9800
   Min. Damping (>=0)   DampMin         ....    0.0000
   Turn off err/grad.   DampErr         ....    0.1000
 Fernandez-Rico         CNVRico         .... off

SCF Procedure:
 Maximum # iterations   MaxIter         ....   125
 SCF integral mode      SCFMode         .... Direct
   Integral package                     .... SHARK and LIBINT hybrid scheme
 Reset frequency        DirectResetFreq ....    20
 Integral Threshold     Thresh          ....  2.500e-11 Eh
 Primitive CutOff       TCut            ....  2.500e-12 Eh

Convergence Tolerance:
 Convergence Check Mode ConvCheckMode   .... Total+1el-Energy
 Convergence forced     ConvForced      .... 0
 Energy Change          TolE            ....  1.000e-08 Eh
 1-El. energy change                    ....  1.000e-05 Eh
 Orbital Gradient       TolG            ....  1.000e-05
 Orbital Rotation angle TolX            ....  1.000e-05
 DIIS Error             TolErr          ....  5.000e-07


Diagonalization of the overlap matrix:
Smallest eigenvalue                        ... 8.120e-07
Time for diagonalization                   ...    0.010 sec
Threshold for overlap eigenvalues          ... 1.000e-08
Number of eigenvalues below threshold      ... 0
Time for construction of square roots      ...    0.006 sec
Total time needed                          ...    0.016 sec

Time for model grid setup =    0.323 sec

------------------------------
INITIAL GUESS: MODEL POTENTIAL
------------------------------
Loading Hartree-Fock densities                     ... done
Calculating cut-offs                               ... done
Initializing the effective Hamiltonian             ... done
Setting up the integral package (SHARK)            ... done
Starting the Coulomb interaction                   ... done (   0.5 sec)
Reading the grid                                   ... done
Mapping shells                                     ... done
Starting the XC term evaluation                    ... done (   0.5 sec)
  promolecular density results
     # of electrons  =    111.999547596
     EX              =    -88.582319729
     EC              =     -3.734731291
     EX+EC           =    -92.317051020
Transforming the Hamiltonian                       ... done (   0.0 sec)
Diagonalizing the Hamiltonian                      ... done (   0.0 sec)
Back transforming the eigenvectors                 ... done (   0.0 sec)
Now organizing SCF variables                       ... done
                      ------------------
                      INITIAL GUESS DONE (   1.3 sec)
                      ------------------
-------------------
DFT GRID GENERATION
-------------------

General Integration Accuracy     IntAcc      ... 4.388
Radial Grid Type                 RadialGrid  ... OptM3 with GC (2021)
Angular Grid (max. ang.)         AngularGrid ... 4 (Lebedev-302)
Angular grid pruning method      GridPruning ... 4 (adaptive)
Weight generation scheme         WeightScheme... Becke
Basis function cutoff            BFCut       ... 1.0000e-11
Integration weight cutoff        WCut        ... 1.0000e-14
Angular grids for H and He will be reduced by one unit
Partially contracted basis set               ... off
Rotationally invariant grid construction     ... off

Total number of grid points                  ...   150484
Total number of batches                      ...     2368
Average number of points per batch           ...       63
Average number of grid points per atom       ...     4560
Time for grid setup =    1.109 sec

--------------------
COSX GRID GENERATION
--------------------

GRIDX 1
-------
General Integration Accuracy     IntAcc      ... 3.816
Radial Grid Type                 RadialGrid  ... OptM3 with GC (2021)
Angular Grid (max. ang.)         AngularGrid ... 1 (Lebedev-50)
Angular grid pruning method      GridPruning ... 4 (adaptive)
Weight generation scheme         WeightScheme... Becke
Basis function cutoff            BFCut       ... 1.0000e-11
Integration weight cutoff        WCut        ... 1.0000e-14
Angular grids for H and He will be reduced by one unit
Partially contracted basis set               ... on
Rotationally invariant grid construction     ... off

Total number of grid points                  ...    19207
Total number of batches                      ...      313
Average number of points per batch           ...       61
Average number of grid points per atom       ...      582
UseSFitting                                  ... on

GRIDX 2
-------
General Integration Accuracy     IntAcc      ... 4.020
Radial Grid Type                 RadialGrid  ... OptM3 with GC (2021)
Angular Grid (max. ang.)         AngularGrid ... 2 (Lebedev-110)
Angular grid pruning method      GridPruning ... 4 (adaptive)
Weight generation scheme         WeightScheme... Becke
Basis function cutoff            BFCut       ... 1.0000e-11
Integration weight cutoff        WCut        ... 1.0000e-14
Angular grids for H and He will be reduced by one unit
Partially contracted basis set               ... on
Rotationally invariant grid construction     ... off

Total number of grid points                  ...    43616
Total number of batches                      ...      696
Average number of points per batch           ...       62
Average number of grid points per atom       ...     1322
UseSFitting                                  ... on

GRIDX 3
-------
General Integration Accuracy     IntAcc      ... 4.338
Radial Grid Type                 RadialGrid  ... OptM3 with GC (2021)
Angular Grid (max. ang.)         AngularGrid ... 3 (Lebedev-194)
Angular grid pruning method      GridPruning ... 4 (adaptive)
Weight generation scheme         WeightScheme... Becke
Basis function cutoff            BFCut       ... 1.0000e-11
Integration weight cutoff        WCut        ... 1.0000e-14
Angular grids for H and He will be reduced by one unit
Partially contracted basis set               ... on
Rotationally invariant grid construction     ... off

Total number of grid points                  ...    93854
Total number of batches                      ...     1482
Average number of points per batch           ...       63
Average number of grid points per atom       ...     2844
UseSFitting                                  ... on

Time for X-Grid setup             =    1.630 sec


--------------------
CPCM SOLVATION MODEL
--------------------
CPCM parameters:
  Epsilon                                         ...      80.4000
  Refrac                                          ...       1.3300
  Rsolv                                           ...       1.3000
  Surface type                                    ... GAUSSIAN VDW
  Epsilon function type                           ...         CPCM
Radii:
 Radius for C  used is    3.8550 Bohr (=   2.0400 Ang.)
 Radius for O  used is    3.4469 Bohr (=   1.8240 Ang.)
 Radius for H  used is    2.4944 Bohr (=   1.3200 Ang.)
Calculating surface                               ...        done! (  0.0s)
GEPOL surface points                              ...         1785
GEPOL Volume                                      ...    1833.4013
GEPOL Surface-area                                ...     979.7459
Calculating surface distance matrix               ...        done! (  0.0s)
Performing Cholesky decomposition & store         ...        done! (  0.0s)
Overall time for CPCM initialization              ...                 0.1s
--------------
SCF ITERATIONS
--------------
ITER       Energy         Delta-E        Max-DP      RMS-DP      [F,P]     Damp
               ***  Starting incremental Fock matrix formation  ***
  0   -655.9902689442   0.000000000000 3.19293817  0.01287444  0.3297685 0.7000
  1   -656.2236045767  -0.233335632438 1.70699947  0.00738805  0.1207482 0.7000
                               ***Turning on DIIS***
  2   -656.3145276719  -0.090923095211 1.19861793  0.00808739  0.0399260 0.0000
  3   -656.4530192427  -0.138491570876 0.98703731  0.00572124  0.0594131 0.0000
  4   -656.4867486414  -0.033729398698 0.38970100  0.00254925  0.0189375 0.0000
  5   -656.4886816077  -0.001932966266 0.05593326  0.00055095  0.0124145 0.0000
                      *** Initiating the SOSCF procedure ***
                           *** Shutting down DIIS ***
                      *** Re-Reading the Fockian *** 
                      *** Removing any level shift *** 
ITER      Energy       Delta-E        Grad      Rot      Max-DP    RMS-DP
  6   -656.48888378  -0.0002021677  0.000304  0.000304  0.100445  0.000577
               *** Restarting incremental Fock matrix formation ***
  7   -656.48885289   0.0000308806  0.000164  0.000518  0.055251  0.000457
  8   -656.48885106   0.0000018331  0.000305  0.000347  0.053295  0.000317
  9   -656.48885558  -0.0000045216  0.000052  0.000107  0.179377  0.000825
 10   -656.48885544   0.0000001447  0.000061  0.000061  0.079000  0.000423
 11   -656.48885573  -0.0000002924  0.000013  0.000025  0.126139  0.001067
 12   -656.48885573   0.0000000014  0.000014  0.000018  0.091756  0.000619
 13   -656.48885573   0.0000000042  0.000004  0.000007  0.152088  0.001118
 14   -656.48885571   0.0000000163  0.000005  0.000008  0.116446  0.000838
 15   -656.48885569   0.0000000141  0.000003  0.000005  0.120917  0.000831
                  ***Gradient check signals convergence***
              ***Rediagonalizing the Fockian in SOSCF/NRSCF***

               *****************************************************
               *                     SUCCESS                       *
               *           SCF CONVERGED AFTER  16 CYCLES          *
               *****************************************************

Old exchange energy                            =    -18.057260060 Eh
New exchange energy                            =    -18.057280377 Eh
Exchange energy change after final integration =     -0.000020317 Eh
Total energy after final integration           =   -656.488875995 Eh
Final COS-X integration done in                =    29.616 sec

----------------
TOTAL SCF ENERGY
----------------

Total Energy       :         -656.48887599 Eh          -17863.97050 eV

Components:
Nuclear Repulsion  :          969.62557416 Eh           26384.85325 eV
Electronic Energy  :        -1626.11445016 Eh          -44248.82376 eV
One Electron Energy:        -2813.29165918 Eh          -76553.55795 eV
Two Electron Energy:         1187.17720903 Eh           32304.73420 eV
Max COSX asymmetry :            0.00001655 Eh               0.00045 eV
CPCM Dielectric    :           -0.02114766 Eh              -0.57546 eV

Virial components:
Potential Energy   :        -1310.30225784 Eh          -35655.13711 eV
Kinetic Energy     :          653.81338185 Eh           17791.16661 eV
Virial Ratio       :            2.00409214


DFT components:
N(Alpha)           :       56.000018570763 electrons
N(Beta)            :       56.000018570763 electrons
N(Total)           :      112.000037141526 electrons
E(X)               :      -71.714383937301 Eh       
E(C)               :       -4.411319192818 Eh       
E(XC)              :      -76.125703130119 Eh       
DFET-embed. en.    :        0.000000000000 Eh       
CPCM Solvation Model Properties:
Surface-charge          :           -0.03685819
Charge-correction       :           -0.00001139 Eh              -0.00031 eV
Free-energy (cav+disp)  :  This term is not implemented in the current solvation scheme

---------------
SCF CONVERGENCE
---------------

  Last Energy change         ...    1.6884e-08  Tolerance :   1.0000e-08
  Last MAX-Density change    ...    4.3299e-15  Tolerance :   1.0000e-07
  Last RMS-Density change    ...    4.3653e-17  Tolerance :   5.0000e-09
  Last Orbital Gradient      ...    2.3650e-06  Tolerance :   1.0000e-05
  Last Orbital Rotation      ...    3.3857e-06  Tolerance :   1.0000e-05

             **** THE GBW FILE WAS UPDATED (Ibuprofeno\Ibuprofeno_B3LYP_6-311+G\Ibuprofeno_B3LYP_6-311+G.orcainp.gbw) ****
             **** DENSITY Ibuprofeno\Ibuprofeno_B3LYP_6-311+G\Ibuprofeno_B3LYP_6-311+G.orcainp.scfp WAS UPDATED ****
             **** ENERGY FILE WAS UPDATED (Ibuprofeno\Ibuprofeno_B3LYP_6-311+G\Ibuprofeno_B3LYP_6-311+G.orcainp.en.tmp) ****
             **** THE GBW FILE WAS UPDATED (Ibuprofeno\Ibuprofeno_B3LYP_6-311+G\Ibuprofeno_B3LYP_6-311+G.orcainp.gbw) ****
             **** DENSITY Ibuprofeno\Ibuprofeno_B3LYP_6-311+G\Ibuprofeno_B3LYP_6-311+G.orcainp.scfp WAS UPDATED ****
----------------
ORBITAL ENERGIES
----------------

  NO   OCC          E(Eh)            E(eV) 
   0   2.0000     -19.177910      -521.8574 
   1   2.0000     -19.122819      -520.3584 
   2   2.0000     -10.319995      -280.8213 
   3   2.0000     -10.200114      -277.5592 
   4   2.0000     -10.188437      -277.2415 
   5   2.0000     -10.181387      -277.0496 
   6   2.0000     -10.178072      -276.9594 
   7   2.0000     -10.177690      -276.9490 
   8   2.0000     -10.173395      -276.8321 
   9   2.0000     -10.172906      -276.8189 
  10   2.0000     -10.168006      -276.6855 
  11   2.0000     -10.163854      -276.5725 
  12   2.0000     -10.162957      -276.5481 
  13   2.0000     -10.148027      -276.1419 
  14   2.0000     -10.147172      -276.1186 
  15   2.0000      -1.109805       -30.1993 
  16   2.0000      -1.027831       -27.9687 
  17   2.0000      -0.868758       -23.6401 
  18   2.0000      -0.820225       -22.3195 
  19   2.0000      -0.794238       -21.6123 
  20   2.0000      -0.749734       -20.4013 
  21   2.0000      -0.742993       -20.2179 
  22   2.0000      -0.678955       -18.4753 
  23   2.0000      -0.675231       -18.3740 
  24   2.0000      -0.659756       -17.9529 
  25   2.0000      -0.623883       -16.9767 
  26   2.0000      -0.612863       -16.6769 
  27   2.0000      -0.587797       -15.9948 
  28   2.0000      -0.554893       -15.0994 
  29   2.0000      -0.530893       -14.4463 
  30   2.0000      -0.500119       -13.6089 
  31   2.0000      -0.477382       -12.9902 
  32   2.0000      -0.469791       -12.7837 
  33   2.0000      -0.457651       -12.4533 
  34   2.0000      -0.452774       -12.3206 
  35   2.0000      -0.448544       -12.2055 
  36   2.0000      -0.433128       -11.7860 
  37   2.0000      -0.429369       -11.6837 
  38   2.0000      -0.421754       -11.4765 
  39   2.0000      -0.412743       -11.2313 
  40   2.0000      -0.402013       -10.9393 
  41   2.0000      -0.387616       -10.5476 
  42   2.0000      -0.378183       -10.2909 
  43   2.0000      -0.370403       -10.0792 
  44   2.0000      -0.369541       -10.0557 
  45   2.0000      -0.362652        -9.8683 
  46   2.0000      -0.357716        -9.7340 
  47   2.0000      -0.342562        -9.3216 
  48   2.0000      -0.341546        -9.2939 
  49   2.0000      -0.330955        -9.0057 
  50   2.0000      -0.328753        -8.9458 
  51   2.0000      -0.321196        -8.7402 
  52   2.0000      -0.315356        -8.5813 
  53   2.0000      -0.295282        -8.0350 
  54   2.0000      -0.260113        -7.0780 
  55   2.0000      -0.244382        -6.6500 
  56   0.0000      -0.024151        -0.6572 
  57   0.0000      -0.019904        -0.5416 
  58   0.0000      -0.013946        -0.3795 
  59   0.0000       0.002865         0.0780 
  60   0.0000       0.016488         0.4487 
  61   0.0000       0.022377         0.6089 
  62   0.0000       0.025815         0.7025 
  63   0.0000       0.030956         0.8424 
  64   0.0000       0.036791         1.0011 
  65   0.0000       0.039169         1.0659 
  66   0.0000       0.042459         1.1554 
  67   0.0000       0.050163         1.3650 
  68   0.0000       0.061440         1.6719 
  69   0.0000       0.062311         1.6956 
  70   0.0000       0.064126         1.7450 
  71   0.0000       0.069031         1.8784 
  72   0.0000       0.075216         2.0467 
  73   0.0000       0.079277         2.1572 
  74   0.0000       0.081357         2.2138 
  75   0.0000       0.083273         2.2660 
  76   0.0000       0.092186         2.5085 
  77   0.0000       0.100315         2.7297 
  78   0.0000       0.105346         2.8666 
  79   0.0000       0.106193         2.8897 
  80   0.0000       0.109406         2.9771 
  81   0.0000       0.110903         3.0178 
  82   0.0000       0.113744         3.0951 
  83   0.0000       0.118600         3.2273 
  84   0.0000       0.123017         3.3475 
  85   0.0000       0.125483         3.4146 
  86   0.0000       0.135685         3.6922 
  87   0.0000       0.137042         3.7291 
  88   0.0000       0.138465         3.7678 
  89   0.0000       0.148814         4.0494 
  90   0.0000       0.151186         4.1140 
  91   0.0000       0.152403         4.1471 
  92   0.0000       0.155483         4.2309 
  93   0.0000       0.164465         4.4753 
  94   0.0000       0.169013         4.5991 
  95   0.0000       0.174561         4.7500 
  96   0.0000       0.177936         4.8419 
  97   0.0000       0.183254         4.9866 
  98   0.0000       0.187959         5.1146 
  99   0.0000       0.190975         5.1967 
 100   0.0000       0.192755         5.2451 
 101   0.0000       0.199931         5.4404 
 102   0.0000       0.203792         5.5455 
 103   0.0000       0.205938         5.6039 
 104   0.0000       0.210474         5.7273 
 105   0.0000       0.215910         5.8752 
 106   0.0000       0.217461         5.9174 
 107   0.0000       0.221004         6.0138 
 108   0.0000       0.222760         6.0616 
 109   0.0000       0.222993         6.0680 
 110   0.0000       0.224871         6.1191 
 111   0.0000       0.231390         6.2964 
 112   0.0000       0.232685         6.3317 
 113   0.0000       0.237557         6.4643 
 114   0.0000       0.242236         6.5916 
 115   0.0000       0.247486         6.7344 
 116   0.0000       0.249513         6.7896 
 117   0.0000       0.251940         6.8556 
 118   0.0000       0.259002         7.0478 
 119   0.0000       0.260870         7.0986 
 120   0.0000       0.264863         7.2073 
 121   0.0000       0.270673         7.3654 
 122   0.0000       0.274997         7.4830 
 123   0.0000       0.277085         7.5399 
 124   0.0000       0.280751         7.6396 
 125   0.0000       0.281800         7.6682 
 126   0.0000       0.286880         7.8064 
 127   0.0000       0.291006         7.9187 
 128   0.0000       0.293442         7.9850 
 129   0.0000       0.297397         8.0926 
 130   0.0000       0.301379         8.2010 
 131   0.0000       0.304229         8.2785 
 132   0.0000       0.306603         8.3431 
 133   0.0000       0.309152         8.4125 
 134   0.0000       0.311992         8.4897 
 135   0.0000       0.323710         8.8086 
 136   0.0000       0.331657         9.0248 
 137   0.0000       0.337639         9.1876 
 138   0.0000       0.340684         9.2705 
 139   0.0000       0.346765         9.4360 
 140   0.0000       0.353314         9.6142 
 141   0.0000       0.359302         9.7771 
 142   0.0000       0.365727         9.9519 
 143   0.0000       0.379322        10.3219 
 144   0.0000       0.384106        10.4521 
 145   0.0000       0.388429        10.5697 
 146   0.0000       0.393377        10.7043 
 147   0.0000       0.400478        10.8975 
 148   0.0000       0.410271        11.1640 
 149   0.0000       0.426315        11.6006 
 150   0.0000       0.439452        11.9581 
 151   0.0000       0.451546        12.2872 
 152   0.0000       0.454579        12.3697 
 153   0.0000       0.458809        12.4848 
 154   0.0000       0.475719        12.9450 
 155   0.0000       0.493296        13.4233 
 156   0.0000       0.505314        13.7503 
 157   0.0000       0.509166        13.8551 
 158   0.0000       0.515306        14.0222 
 159   0.0000       0.528052        14.3690 
 160   0.0000       0.532026        14.4772 
 161   0.0000       0.538303        14.6480 
 162   0.0000       0.543571        14.7913 
 163   0.0000       0.560090        15.2408 
 164   0.0000       0.564655        15.3651 
 165   0.0000       0.576598        15.6900 
 166   0.0000       0.578112        15.7312 
 167   0.0000       0.587796        15.9948 
 168   0.0000       0.595536        16.2054 
 169   0.0000       0.599943        16.3253 
 170   0.0000       0.604353        16.4453 
 171   0.0000       0.618037        16.8177 
 172   0.0000       0.624785        17.0013 
 173   0.0000       0.632029        17.1984 
 174   0.0000       0.636266        17.3137 
 175   0.0000       0.643907        17.5216 
 176   0.0000       0.652691        17.7606 
 177   0.0000       0.661740        18.0069 
 178   0.0000       0.669786        18.2258 
 179   0.0000       0.675716        18.3872 
 180   0.0000       0.677812        18.4442 
 181   0.0000       0.684075        18.6146 
 182   0.0000       0.688678        18.7399 
 183   0.0000       0.697096        18.9690 
 184   0.0000       0.700299        19.0561 
 185   0.0000       0.704669        19.1750 
 186   0.0000       0.708379        19.2760 
 187   0.0000       0.714209        19.4346 
 188   0.0000       0.717708        19.5298 
 189   0.0000       0.724593        19.7172 
 190   0.0000       0.725974        19.7548 
 191   0.0000       0.738204        20.0876 
 192   0.0000       0.742904        20.2154 
 193   0.0000       0.744479        20.2583 
 194   0.0000       0.752851        20.4861 
 195   0.0000       0.757350        20.6086 
 196   0.0000       0.768715        20.9178 
 197   0.0000       0.771231        20.9863 
 198   0.0000       0.773934        21.0598 
 199   0.0000       0.778348        21.1799 
 200   0.0000       0.792680        21.5699 
 201   0.0000       0.800155        21.7733 
 202   0.0000       0.807029        21.9604 
 203   0.0000       0.822068        22.3696 
 204   0.0000       0.835998        22.7486 
 205   0.0000       0.864504        23.5243 
 206   0.0000       0.873976        23.7821 
 207   0.0000       0.878651        23.9093 
 208   0.0000       0.882336        24.0096 
 209   0.0000       0.902545        24.5595 
 210   0.0000       0.916980        24.9523 
 211   0.0000       0.942019        25.6336 
 212   0.0000       0.962504        26.1911 
 213   0.0000       0.969608        26.3844 
 214   0.0000       0.973944        26.5024 
 215   0.0000       1.003160        27.2974 
 216   0.0000       1.020231        27.7619 
 217   0.0000       1.026751        27.9393 
 218   0.0000       1.030383        28.0381 
 219   0.0000       1.042071        28.3562 
 220   0.0000       1.062653        28.9163 
 221   0.0000       1.066598        29.0236 
 222   0.0000       1.083035        29.4709 
 223   0.0000       1.091722        29.7073 
 224   0.0000       1.102521        30.0011 
 225   0.0000       1.117269        30.4024 
 226   0.0000       1.126128        30.6435 
 227   0.0000       1.146539        31.1989 
 228   0.0000       1.149524        31.2802 
 229   0.0000       1.169312        31.8186 
 230   0.0000       1.173694        31.9378 
 231   0.0000       1.194840        32.5133 
 232   0.0000       1.205752        32.8102 
 233   0.0000       1.211907        32.9777 
 234   0.0000       1.222533        33.2668 
 235   0.0000       1.244508        33.8648 
 236   0.0000       1.255557        34.1654 
 237   0.0000       1.272714        34.6323 
 238   0.0000       1.292782        35.1784 
 239   0.0000       1.305545        35.5257 
 240   0.0000       1.334222        36.3060 
 241   0.0000       1.350848        36.7584 
 242   0.0000       1.389778        37.8178 
 243   0.0000       1.405279        38.2396 
 244   0.0000       1.429600        38.9014 
 245   0.0000       1.464253        39.8443 
 246   0.0000       1.468574        39.9619 
 247   0.0000       1.473090        40.0848 
 248   0.0000       1.483446        40.3666 
 249   0.0000       1.489661        40.5357 
 250   0.0000       1.496479        40.7213 
 251   0.0000       1.513109        41.1738 
 252   0.0000       1.518178        41.3117 
 253   0.0000       1.526245        41.5313 
 254   0.0000       1.538849        41.8742 
 255   0.0000       1.544804        42.0363 
 256   0.0000       1.549744        42.1707 
 257   0.0000       1.556065        42.3427 
 258   0.0000       1.561796        42.4986 
 259   0.0000       1.570985        42.7487 
 260   0.0000       1.577736        42.9324 
 261   0.0000       1.584322        43.1116 
 262   0.0000       1.591428        43.3049 
 263   0.0000       1.607676        43.7471 
 264   0.0000       1.612755        43.8853 
 265   0.0000       1.620064        44.0842 
 266   0.0000       1.624332        44.2003 
 267   0.0000       1.626893        44.2700 
 268   0.0000       1.648998        44.8715 
 269   0.0000       1.654496        45.0211 
 270   0.0000       1.656743        45.0823 
 271   0.0000       1.675416        45.5904 
 272   0.0000       1.685901        45.8757 
 273   0.0000       1.694901        46.1206 
 274   0.0000       1.704124        46.3716 
 275   0.0000       1.716466        46.7074 
 276   0.0000       1.725222        46.9457 
 277   0.0000       1.733458        47.1698 
 278   0.0000       1.742811        47.4243 
 279   0.0000       1.745626        47.5009 
 280   0.0000       1.756836        47.8059 
 281   0.0000       1.782986        48.5175 
 282   0.0000       1.787364        48.6366 
 283   0.0000       1.794591        48.8333 
 284   0.0000       1.805879        49.1405 
 285   0.0000       1.814187        49.3665 
 286   0.0000       1.819269        49.5048 
 287   0.0000       1.824330        49.6425 
 288   0.0000       1.832082        49.8535 
 289   0.0000       1.857462        50.5441 
 290   0.0000       1.867550        50.8186 
 291   0.0000       1.889620        51.4192 
 292   0.0000       1.897135        51.6237 
 293   0.0000       1.917989        52.1911 
 294   0.0000       1.926616        52.4259 
 295   0.0000       1.937890        52.7327 
 296   0.0000       1.951455        53.1018 
 297   0.0000       1.965060        53.4720 
 298   0.0000       1.980363        53.8884 
 299   0.0000       2.002006        54.4773 
 300   0.0000       2.004777        54.5528 
 301   0.0000       2.011020        54.7226 
 302   0.0000       2.033401        55.3317 
 303   0.0000       2.055003        55.9195 
 304   0.0000       2.072698        56.4010 
 305   0.0000       2.084805        56.7304 
 306   0.0000       2.089570        56.8601 
 307   0.0000       2.109297        57.3969 
 308   0.0000       2.127661        57.8966 
 309   0.0000       2.139138        58.2089 
 310   0.0000       2.146125        58.3990 
 311   0.0000       2.154057        58.6149 
 312   0.0000       2.177505        59.2529 
 313   0.0000       2.194073        59.7038 
 314   0.0000       2.199295        59.8459 
 315   0.0000       2.217018        60.3281 
 316   0.0000       2.240347        60.9629 
 317   0.0000       2.255634        61.3789 
 318   0.0000       2.300196        62.5915 
 319   0.0000       2.326595        63.3099 
 320   0.0000       2.336217        63.5717 
 321   0.0000       2.362967        64.2996 
 322   0.0000       2.373609        64.5892 
 323   0.0000       2.386914        64.9512 
 324   0.0000       2.399081        65.2823 
 325   0.0000       2.407107        65.5007 
 326   0.0000       2.418952        65.8230 
 327   0.0000       2.427383        66.0525 
 328   0.0000       2.448252        66.6203 
 329   0.0000       2.462063        66.9961 
 330   0.0000       2.491109        67.7865 
 331   0.0000       2.498215        67.9799 
 332   0.0000       2.505182        68.1695 
 333   0.0000       2.535473        68.9937 
 334   0.0000       2.539522        69.1039 
 335   0.0000       2.545870        69.2766 
 336   0.0000       2.560638        69.6785 
 337   0.0000       2.572496        70.0012 
 338   0.0000       2.574796        70.0637 
 339   0.0000       2.590005        70.4776 
 340   0.0000       2.609259        71.0016 
 341   0.0000       2.618680        71.2579 
 342   0.0000       2.630427        71.5775 
 343   0.0000       2.633135        71.6512 
 344   0.0000       2.646625        72.0183 
 345   0.0000       2.658183        72.3328 
 346   0.0000       2.690350        73.2081 
 347   0.0000       2.697282        73.3968 
 348   0.0000       2.705050        73.6081 
 349   0.0000       2.716276        73.9136 
 350   0.0000       2.725334        74.1601 
 351   0.0000       2.735824        74.4456 
 352   0.0000       2.741708        74.6057 
 353   0.0000       2.762915        75.1827 
 354   0.0000       2.775875        75.5354 
 355   0.0000       2.779553        75.6355 
 356   0.0000       2.791297        75.9550 
 357   0.0000       2.810334        76.4731 
 358   0.0000       2.812143        76.5223 
 359   0.0000       2.832987        77.0895 
 360   0.0000       2.838970        77.2523 
 361   0.0000       2.841999        77.3347 
 362   0.0000       2.862424        77.8905 
 363   0.0000       2.880750        78.3892 
 364   0.0000       2.884145        78.4816 
 365   0.0000       2.904440        79.0338 
 366   0.0000       2.905659        79.0670 
 367   0.0000       2.906127        79.0797 
 368   0.0000       2.929353        79.7118 
 369   0.0000       2.944646        80.1279 
 370   0.0000       2.959890        80.5427 
 371   0.0000       2.974682        80.9452 
 372   0.0000       2.983830        81.1941 
 373   0.0000       2.990045        81.3633 
 374   0.0000       2.998896        81.6041 
 375   0.0000       3.042377        82.7873 
 376   0.0000       3.069133        83.5154 
 377   0.0000       3.110821        84.6498 
 378   0.0000       3.121126        84.9301 
 379   0.0000       3.143926        85.5506 
 380   0.0000       3.167823        86.2008 
 381   0.0000       3.190395        86.8151 
 382   0.0000       3.229428        87.8772 
 383   0.0000       3.256167        88.6048 
 384   0.0000       3.282426        89.3194 
 385   0.0000       3.320560        90.3570 
 386   0.0000       3.346962        91.0755 
 387   0.0000       3.380092        91.9770 
 388   0.0000       3.419963        93.0619 
 389   0.0000       3.458310        94.1054 
 390   0.0000       3.491156        94.9992 
 391   0.0000       3.503533        95.3360 
 392   0.0000       3.517773        95.7235 
 393   0.0000       3.598136        97.9103 
 394   0.0000       3.645733        99.2055 
 395   0.0000       3.672585        99.9361 
 396   0.0000       3.744794       101.9010 
 397   0.0000       3.795575       103.2829 
 398   0.0000       3.802072       103.4596 
 399   0.0000       3.809646       103.6657 
 400   0.0000       3.813137       103.7607 
 401   0.0000       3.820532       103.9620 
 402   0.0000       3.839920       104.4895 
 403   0.0000       3.877628       105.5156 
 404   0.0000       3.891492       105.8929 
 405   0.0000       3.989594       108.5624 
 406   0.0000       4.033726       109.7633 
 407   0.0000       4.050939       110.2317 
 408   0.0000       4.064180       110.5920 
 409   0.0000       4.159962       113.1983 
 410   0.0000       4.178235       113.6955 
 411   0.0000       4.249843       115.6441 
 412   0.0000       4.269513       116.1793 
 413   0.0000       4.308427       117.2383 
 414   0.0000       4.348451       118.3274 
 415   0.0000       4.439153       120.7955 
 416   0.0000       4.855902       132.1358 
 417   0.0000       4.993243       135.8730 
 418   0.0000       5.062259       137.7511 
 419   0.0000       5.148749       140.1046 
 420   0.0000       5.347914       145.5241 
 421   0.0000       5.571923       151.6197 
 422   0.0000       5.865419       159.6062 
 423   0.0000      23.620299       642.7410 
 424   0.0000      23.774174       646.9282 
 425   0.0000      23.840560       648.7346 
 426   0.0000      23.850496       649.0050 
 427   0.0000      23.926204       651.0651 
 428   0.0000      23.952957       651.7931 
 429   0.0000      23.968349       652.2119 
 430   0.0000      23.975561       652.4082 
 431   0.0000      23.991412       652.8395 
 432   0.0000      23.999548       653.0609 
 433   0.0000      24.070716       654.9975 
 434   0.0000      24.094615       655.6478 
 435   0.0000      24.177859       657.9130 
 436   0.0000      49.862196      1356.8193 
 437   0.0000      50.001657      1360.6143 

                    ********************************
                    * MULLIKEN POPULATION ANALYSIS *
                    ********************************

-----------------------
MULLIKEN ATOMIC CHARGES
-----------------------
   0 C :   -0.634144
   1 C :    0.513964
   2 C :   -0.703805
   3 C :   -1.005575
   4 C :    1.640014
   5 C :   -0.784149
   6 C :   -0.456225
   7 C :    0.863659
   8 C :   -0.700891
   9 C :   -0.567170
  10 C :    0.038369
  11 C :   -0.539757
  12 C :   -0.010805
  13 O :   -0.254481
  14 O :   -0.369747
  15 H :    0.142674
  16 H :    0.145876
  17 H :    0.145242
  18 H :    0.136428
  19 H :    0.144759
  20 H :    0.142489
  21 H :    0.142428
  22 H :    0.151953
  23 H :    0.164427
  24 H :    0.150602
  25 H :    0.153363
  26 H :    0.165762
  27 H :    0.149191
  28 H :    0.200149
  29 H :    0.162550
  30 H :    0.161959
  31 H :    0.163222
  32 H :    0.347669
Sum of atomic charges:    0.0000000

[...]
      py      :     0.010501
 19 H s       :     0.833000  s :     0.833000
      pz      :     0.005560  p :     0.022492
      px      :     0.006688
      py      :     0.010244
 20 H s       :     0.833620  s :     0.833620
      pz      :     0.010930  p :     0.022723
      px      :     0.005886
      py      :     0.005907
 21 H s       :     0.834465  s :     0.834465
      pz      :     0.008840  p :     0.022748
      px      :     0.005028
      py      :     0.008880
 22 H s       :     0.827309  s :     0.827309
      pz      :     0.004965  p :     0.022013
      px      :     0.005977
      py      :     0.011071
 23 H s       :     0.820736  s :     0.820736
      pz      :     0.008718  p :     0.022367
      px      :     0.005393
      py      :     0.008255
 24 H s       :     0.827003  s :     0.827003
      pz      :     0.005948  p :     0.025173
      px      :     0.006253
      py      :     0.012972
 25 H s       :     0.822648  s :     0.822648
      pz      :     0.005893  p :     0.025282
      px      :     0.007619
      py      :     0.011769
 26 H s       :     0.819351  s :     0.819351
      pz      :     0.006007  p :     0.025347
      px      :     0.006143
      py      :     0.013197
 27 H s       :     0.828649  s :     0.828649
      pz      :     0.005899  p :     0.025218
      px      :     0.007643
      py      :     0.011676
 28 H s       :     0.774234  s :     0.774234
      pz      :     0.004653  p :     0.022321
      px      :     0.005674
      py      :     0.011994
 29 H s       :     0.801649  s :     0.801649
      pz      :     0.005314  p :     0.022768
      px      :     0.005867
      py      :     0.011586
 30 H s       :     0.819226  s :     0.819226
      pz      :     0.008198  p :     0.022794
      px      :     0.005914
      py      :     0.008681
 31 H s       :     0.817234  s :     0.817234
      pz      :     0.004605  p :     0.022922
      px      :     0.013179
      py      :     0.005138
 32 H s       :     0.620060  s :     0.620060
      pz      :     0.014884  p :     0.063359
      px      :     0.022681
      py      :     0.025794


                     *******************************
                     * LOEWDIN POPULATION ANALYSIS *
                     *******************************

----------------------
LOEWDIN ATOMIC CHARGES
----------------------
   0 C :   -0.123743
   1 C :   -0.165231
   2 C :   -0.127470
   3 C :   -0.109127
   4 C :   -0.110825
   5 C :   -0.063288
   6 C :   -0.057848
   7 C :   -0.125675
   8 C :   -0.058002
   9 C :   -0.064874
  10 C :   -0.118567
  11 C :   -0.082732
  12 C :    0.000660
  13 O :   -0.058679
  14 O :   -0.220609
  15 H :    0.060609
  16 H :    0.069670
  17 H :    0.067546
  18 H :    0.075285
  19 H :    0.066264
  20 H :    0.059976
  21 H :    0.060371
  22 H :    0.086953
  23 H :    0.086040
  24 H :    0.090814
  25 H :    0.091310
  26 H :    0.096950
  27 H :    0.089587
  28 H :    0.112596
  29 H :    0.077914
  30 H :    0.073142
  31 H :    0.069929
  32 H :    0.151054

-------------------------------
LOEWDIN REDUCED ORBITAL CHARGES
-------------------------------
  0 C s       :     2.797077  s :     2.797077
      pz      :     1.073687  p :     3.230239
      px      :     1.083234
      py      :     1.073319
      dz2     :     0.026257  d :     0.096427
      dxz     :     0.011086
      dyz     :     0.021157
      dx2y2   :     0.022497
      dxy     :     0.015429
  1 C s       :     2.803232  s :     2.803232
      pz      :     1.063233  p :     3.205201
      px      :     1.070866
      py      :     1.071103
      dz2     :     0.037227  d :     0.156798
      dxz     :     0.027115
      dyz     :     0.033167
      dx2y2   :     0.031328
      dxy     :     0.027961
  2 C s       :     2.803470  s :     2.803470
      pz      :     1.088700  p :     3.227461
      px      :     1.054939
      py      :     1.083822
      dz2     :     0.016457  d :     0.096540
      dxz     :     0.017326
      dyz     :     0.019572
      dx2y2   :     0.020093
      dxy     :     0.023091
  3 C s       :     2.783804  s :     2.783804
      pz      :     1.070512  p :     3.198736
      px      :     1.045341
      py      :     1.082883
      dz2     :     0.025825  d :     0.126587
      dxz     :     0.024504
      dyz     :     0.025273
      dx2y2   :     0.029917
      dxy     :     0.021067
  4 C s       :     2.788306  s :     2.788306
      pz      :     0.928712  p :     3.158576
      px      :     1.093759
      py      :     1.136105
      dz2     :     0.010798  d :     0.163944
      dxz     :     0.018788
      dyz     :     0.020621
      dx2y2   :     0.056148
      dxy     :     0.057588
  5 C s       :     2.784092  s :     2.784092
      pz      :     0.967516  p :     3.147218
      px      :     1.105972
      py      :     1.073730
      dz2     :     0.008649  d :     0.131979
      dxz     :     0.018468
      dyz     :     0.008475
      dx2y2   :     0.047285
      dxy     :     0.049102
  6 C s       :     2.784574  s :     2.784574
      pz      :     0.963143  p :     3.139424
      px      :     1.103330
      py      :     1.072951
      dz2     :     0.008829  d :     0.133850
      dxz     :     0.017676
      dyz     :     0.011242
      dx2y2   :     0.043688
      dxy     :     0.052416
  7 C s       :     2.782984  s :     2.782984
      pz      :     0.972373  p :     3.178847
      px      :     1.064445
      py      :     1.142030
      dz2     :     0.011226  d :     0.163843
      dxz     :     0.016669
      dyz     :     0.021988
      dx2y2   :     0.058305
      dxy     :     0.055655
  8 C s       :     2.779926  s :     2.779926
      pz      :     0.963808  p :     3.145034
      px      :     1.109640
      py      :     1.071587
      dz2     :     0.008724  d :     0.133041
      dxz     :     0.019521
      dyz     :     0.009167
      dx2y2   :     0.045890
      dxy     :     0.049739
  9 C s       :     2.785800  s :     2.785800
      pz      :     0.969671  p :     3.146392
      px      :     1.100383
      py      :     1.076338
      dz2     :     0.008807  d :     0.132681
      dxz     :     0.016862
      dyz     :     0.010382
      dx2y2   :     0.044629
      dxy     :     0.052002
 10 C s       :     2.779090  s :     2.779090
      pz      :     1.067053  p :     3.187711
      px      :     1.053305
      py      :     1.067353
      dz2     :     0.032141  d :     0.151766
      dxz     :     0.032727
      dyz     :     0.034595
      dx2y2   :     0.029562
      dxy     :     0.022740
 11 C s       :     2.789481  s :     2.789481
      pz      :     1.031373  p :     3.198332
      px      :     1.080875
      py      :     1.086084
      dz2     :     0.025317  d :     0.094919
      dxz     :     0.014445
      dyz     :     0.023492
      dx2y2   :     0.022785
      dxy     :     0.008880
 12 C s       :     2.776304  s :     2.776304
      pz      :     0.971512  p :     2.806030
      px      :     0.859627
      py      :     0.974891
      dz2     :     0.105417  d :     0.417006
      dxz     :     0.081927
      dyz     :     0.111351
      dx2y2   :     0.061296
      dxy     :     0.057015
 13 O s       :     3.388068  s :     3.388068
      pz      :     1.496533  p :     4.651449
      px      :     1.611912
      py      :     1.543004
      dz2     :     0.009924  d :     0.019161
      dxz     :     0.002496
      dyz     :     0.002251
      dx2y2   :     0.000548
      dxy     :     0.003941
 14 O s       :     3.495079  s :     3.495079
      pz      :     1.760226  p :     4.701754
      px      :     1.452214
      py      :     1.489314
      dz2     :     0.003424  d :     0.023776
      dxz     :     0.002122
      dyz     :     0.003692
      dx2y2   :     0.005050
      dxy     :     0.009488
 15 H s       :     0.870693  s :     0.870693
      pz      :     0.035286  p :     0.068698
      px      :     0.016911
      py      :     0.016502
 16 H s       :     0.861827  s :     0.861827
      pz      :     0.014408  p :     0.068502
      px      :     0.018945
      py      :     0.035150
 17 H s       :     0.862720  s :     0.862720
      pz      :     0.014135  p :     0.069734
      px      :     0.041035
      py      :     0.014565
 18 H s       :     0.854046  s :     0.854046
      pz      :     0.015837  p :     0.070668
      px      :     0.020037
      py      :     0.034794
 19 H s       :     0.865061  s :     0.865061
      pz      :     0.015328  p :     0.068675
      px      :     0.020702
      py      :     0.032645
 20 H s       :     0.871343  s :     0.871343
      pz      :     0.034774  p :     0.068681
      px      :     0.017537
      py      :     0.016369
 21 H s       :     0.870972  s :     0.870972
      pz      :     0.026896  p :     0.068658
      px      :     0.014719
      py      :     0.027043
 22 H s       :     0.843957  s :     0.843957
      pz      :     0.015639  p :     0.069090
      px      :     0.017462
      py      :     0.035989
 23 H s       :     0.844115  s :     0.844115
      pz      :     0.028149  p :     0.069845
      px      :     0.015878
      py      :     0.025818
 24 H s       :     0.838322  s :     0.838322
      pz      :     0.014871  p :     0.070863
      px      :     0.017702
      py      :     0.038290
 25 H s       :     0.837916  s :     0.837916
      pz      :     0.014620  p :     0.070774
      px      :     0.021897
      py      :     0.034257
 26 H s       :     0.831947  s :     0.831947
      pz      :     0.014815  p :     0.071104
      px      :     0.017616
      py      :     0.038672
 27 H s       :     0.839728  s :     0.839728
      pz      :     0.014713  p :     0.070684
      px      :     0.021830
      py      :     0.034142
 28 H s       :     0.815718  s :     0.815718
      pz      :     0.015513  p :     0.071686
      px      :     0.017615
      py      :     0.038558
 29 H s       :     0.852735  s :     0.852735
      pz      :     0.015431  p :     0.069351
      px      :     0.016738
      py      :     0.037182
 30 H s       :     0.857897  s :     0.857897
      pz      :     0.024697  p :     0.068962
      px      :     0.017078
      py      :     0.027186
 31 H s       :     0.860873  s :     0.860873
      pz      :     0.013087  p :     0.069198
      px      :     0.042564
      py      :     0.013547
 32 H s       :     0.664381  s :     0.664381
      pz      :     0.031524  p :     0.184565
      px      :     0.067495
      py      :     0.085546


                      *****************************
                      * MAYER POPULATION ANALYSIS *
                      *****************************

  NA   - Mulliken gross atomic population
  ZA   - Total nuclear charge
  QA   - Mulliken gross atomic charge
  VA   - Mayer's total valence
  BVA  - Mayer's bonded valence
  FA   - Mayer's free valence

  ATOM       NA         ZA         QA         VA         BVA        FA
  0 C      6.6276     6.0000    -0.6276     3.7626     3.7626    -0.0000
  1 C      5.5704     6.0000     0.4296     2.9864     2.9864    -0.0000
  2 C      6.6975     6.0000    -0.6975     3.7999     3.7999    -0.0000
  3 C      7.0746     6.0000    -1.0746     3.3641     3.3641    -0.0000
  4 C      4.2417     6.0000     1.7583     0.8215     0.8215     0.0000
  5 C      6.6316     6.0000    -0.6316     4.4732     4.4732     0.0000
  6 C      6.4321     6.0000    -0.4321     3.4941     3.4941    -0.0000
  7 C      5.2040     6.0000     0.7960     3.2582     3.2582    -0.0000
  8 C      6.5137     6.0000    -0.5137     4.5438     4.5438     0.0000
  9 C      6.6615     6.0000    -0.6615     4.1859     4.1859     0.0000
 10 C      5.9873     6.0000     0.0127     3.0365     3.0365    -0.0000
 11 C      6.6584     6.0000    -0.6584     3.9618     3.9618     0.0000
 12 C      6.0662     6.0000    -0.0662     4.2514     4.2514    -0.0000
 13 O      8.2011     8.0000    -0.2011     2.0015     2.0015    -0.0000
 14 O      8.3537     8.0000    -0.3537     1.9790     1.9790    -0.0000
 15 H      0.8557     1.0000     0.1443     0.9498     0.9498     0.0000
 16 H      0.8560     1.0000     0.1440     0.9528     0.9528     0.0000
 17 H      0.8543     1.0000     0.1457     0.9527     0.9527    -0.0000
 18 H      0.8662     1.0000     0.1338     0.9685     0.9685     0.0000
 19 H      0.8555     1.0000     0.1445     0.9521     0.9521     0.0000
 20 H      0.8563     1.0000     0.1437     0.9476     0.9476     0.0000
 21 H      0.8572     1.0000     0.1428     0.9476     0.9476    -0.0000
 22 H      0.8493     1.0000     0.1507     0.9560     0.9560     0.0000
 23 H      0.8431     1.0000     0.1569     0.9449     0.9449    -0.0000
 24 H      0.8522     1.0000     0.1478     0.9656     0.9656     0.0000
 25 H      0.8479     1.0000     0.1521     0.9609     0.9609    -0.0000
 26 H      0.8447     1.0000     0.1553     0.9663     0.9663     0.0000
 27 H      0.8539     1.0000     0.1461     0.9637     0.9637    -0.0000
 28 H      0.7966     1.0000     0.2034     0.9409     0.9409     0.0000
 29 H      0.8244     1.0000     0.1756     0.9463     0.9463    -0.0000
 30 H      0.8420     1.0000     0.1580     0.9461     0.9461    -0.0000
 31 H      0.8402     1.0000     0.1598     0.9431     0.9431    -0.0000
 32 H      0.6834     1.0000     0.3166     0.9567     0.9567    -0.0000

  Mayer bond orders larger than 0.100000
B(  0-C ,  1-C ) :   0.8165 B(  0-C ,  3-C ) :  -0.1004 B(  0-C , 15-H ) :   1.0058 
B(  0-C , 16-H ) :   0.9912 B(  0-C , 17-H ) :   0.9914 B(  1-C ,  2-C ) :   0.6998 
B(  1-C ,  3-C ) :   0.8685 B(  1-C ,  4-C ) :  -0.1546 B(  1-C ,  5-C ) :   0.1189 
B(  1-C , 18-H ) :   0.9524 B(  2-C ,  3-C ) :   0.2580 B(  2-C ,  4-C ) :  -0.2384 
B(  2-C , 19-H ) :   1.0133 B(  2-C , 20-H ) :   0.9970 B(  2-C , 21-H ) :   0.9910 
B(  3-C ,  4-C ) :  -0.6572 B(  3-C ,  5-C ) :   0.3428 B(  3-C ,  6-C ) :   0.1052 
B(  3-C ,  7-C ) :  -0.1807 B(  3-C ,  8-C ) :   0.1162 B(  3-C ,  9-C ) :   0.1404 
B(  3-C , 22-H ) :   1.2117 B(  3-C , 23-H ) :   1.0577 B(  4-C ,  5-C ) :   1.2640 
B(  4-C ,  7-C ) :   0.5018 B(  4-C ,  8-C ) :  -0.2909 B(  4-C ,  9-C ) :   1.2808 
B(  4-C , 10-C ) :  -0.1221 B(  4-C , 18-H ) :  -0.1216 B(  4-C , 22-H ) :  -0.4344 
B(  4-C , 23-H ) :  -0.1623 B(  5-C ,  6-C ) :   1.3061 B(  5-C ,  9-C ) :   0.3377 
B(  5-C , 24-H ) :   0.9361 B(  6-C ,  7-C ) :   1.3909 B(  6-C ,  8-C ) :   0.1267 
B(  6-C ,  9-C ) :  -0.1371 B(  6-C , 12-C ) :  -0.1801 B(  6-C , 13-O ) :  -0.2118 
B(  6-C , 25-H ) :   0.9081 B(  6-C , 28-H ) :   0.2199 B(  7-C ,  8-C ) :   1.6473 
B(  7-C , 10-C ) :   0.1721 B(  7-C , 11-C ) :  -0.2318 B(  7-C , 12-C ) :  -0.3353 
B(  7-C , 13-O ) :   0.3846 B(  7-C , 14-O ) :   0.1247 B(  7-C , 28-H ) :  -0.2784 
B(  7-C , 32-H ) :   0.1284 B(  8-C ,  9-C ) :   1.3110 B(  8-C , 10-C ) :   0.2378 
B(  8-C , 11-C ) :   0.2641 B(  8-C , 12-C ) :   0.4398 B(  8-C , 14-O ) :  -0.2568 
B(  8-C , 26-H ) :   0.8700 B(  9-C , 10-C ) :   0.1526 B(  9-C , 22-H ) :   0.2612 
B(  9-C , 27-H ) :   0.9066 B( 10-C , 11-C ) :   0.9257 B( 10-C , 12-C ) :   0.8770 
B( 10-C , 13-O ) :  -0.2689 B( 10-C , 28-H ) :   1.0187 B( 11-C , 29-H ) :   0.9714 
B( 11-C , 30-H ) :   0.9953 B( 11-C , 31-H ) :   0.9825 B( 12-C , 13-O ) :   1.3525 
B( 12-C , 14-O ) :   2.0889 B( 13-O , 32-H ) :   0.8500 

-------
TIMINGS
-------

Total SCF time: 0 days 0 hours 2 min 18 sec 

Total time                  ....     138.657 sec
Sum of individual times     ....     138.271 sec  ( 99.7%)

Fock matrix formation       ....     135.394 sec  ( 97.6%)
  Split-RI-J                ....       6.361 sec  (  4.7% of F)
  Chain of spheres X        ....     110.369 sec  ( 81.5% of F)
  XC integration            ....       8.904 sec  (  6.6% of F)
    Basis function eval.    ....       2.812 sec  ( 31.6% of XC)
    Density eval.           ....       3.343 sec  ( 37.5% of XC)
    XC-Functional eval.     ....       0.240 sec  (  2.7% of XC)
    XC-Potential eval.      ....       2.072 sec  ( 23.3% of XC)
Diagonalization             ....       0.018 sec  (  0.0%)
Density matrix formation    ....       0.013 sec  (  0.0%)
Population analysis         ....       0.031 sec  (  0.0%)
Initial guess               ....       0.020 sec  (  0.0%)
Orbital Transformation      ....       0.000 sec  (  0.0%)
Orbital Orthonormalization  ....       0.014 sec  (  0.0%)
DIIS solution               ....       0.006 sec  (  0.0%)
SOSCF solution              ....       0.087 sec  (  0.1%)
Grid generation             ....       2.702 sec  (  1.9%)

Maximum memory used throughout the entire SCF-calculation: 167.2 MB

-------------------------   --------------------
FINAL SINGLE POINT ENERGY      -656.493116804340
-------------------------   --------------------

                                *** OPTIMIZATION RUN DONE ***

                            ***************************************
                            *     ORCA property calculations      *
                            ***************************************

                                    ---------------------
                                    Active property flags
                                    ---------------------
   (+) Dipole Moment


------------------------------------------------------------------------------
                       ORCA ELECTRIC PROPERTIES CALCULATION
------------------------------------------------------------------------------

Dipole Moment Calculation                       ... on
Quadrupole Moment Calculation                   ... off
Polarizability Calculation                      ... off
GBWName                                         ... Ibuprofeno\Ibuprofeno_B3LYP_6-311+G\Ibuprofeno_B3LYP_6-311+G.orcainp.gbw
Electron density                                ... Ibuprofeno\Ibuprofeno_B3LYP_6-311+G\Ibuprofeno_B3LYP_6-311+G.orcainp.scfp
The origin for moment calculation is the CENTER OF MASS  = (11.502625, -0.122062 -1.644174)

-------------
DIPOLE MOMENT
-------------
                                X             Y             Z
Electronic contribution:     19.22292       3.95057      -0.98552
Nuclear contribution   :    -20.86449      -5.94347       0.72646
                        -----------------------------------------
Total Dipole Moment    :     -1.64157      -1.99290      -0.25906
                        -----------------------------------------
Magnitude (a.u.)       :      2.59491
Magnitude (Debye)      :      6.59573



--------------------
Rotational spectrum 
--------------------
 
Rotational constants in cm-1:     0.048049     0.008397     0.007928 
Rotational constants in MHz :  1440.461150   251.749794   237.664738 

 Dipole components along the rotational axes: 
x,y,z [a.u.] :     1.964584    -1.145285     1.249906 
x,y,z [Debye]:     4.993576    -2.911083     3.177010 

 

Timings for individual modules:

Sum of individual times         ...     6750.752 sec (= 112.513 min)
GTO integral calculation        ...        6.581 sec (=   0.110 min)   0.1 %
SCF iterations                  ...     5317.171 sec (=  88.620 min)  78.8 %
SCF Gradient evaluation         ...     1425.157 sec (=  23.753 min)  21.1 %
Geometry relaxation             ...        1.843 sec (=   0.031 min)   0.0 %
                             ****ORCA TERMINATED NORMALLY****
TOTAL RUN TIME: 0 days 1 hours 52 minutes 33 seconds 112 msec
