
                                 *****************
                                 * O   R   C   A *
                                 *****************

                                            #,                                       
                                            ###                                      
                                            ####                                     
                                            #####                                    
                                            ######                                   
                                           ########,                                 
                                     ,,################,,,,,                         
                               ,,#################################,,                 
                          ,,##########################################,,             
                       ,#########################################, ''#####,          
                    ,#############################################,,   '####,        
                  ,##################################################,,,,####,       
                ,###########''''           ''''###############################       
              ,#####''   ,,,,##########,,,,          '''####'''          '####       
            ,##' ,,,,###########################,,,                        '##       
           ' ,,###''''                  '''############,,,                           
         ,,##''                                '''############,,,,        ,,,,,,###''
      ,#''                                            '''#######################'''  
     '                                                          ''''####''''         
             ,#######,   #######,   ,#######,      ##                                
            ,#'     '#,  ##    ##  ,#'     '#,    #''#        ######   ,####,        
            ##       ##  ##   ,#'  ##            #'  '#       #        #'  '#        
            ##       ##  #######   ##           ,######,      #####,   #    #        
            '#,     ,#'  ##    ##  '#,     ,#' ,#      #,         ##   #,  ,#        
             '#######'   ##     ##  '#######'  #'      '#     #####' # '####'        



                  #######################################################
                  #                        -***-                        #
                  #          Department of theory and spectroscopy      #
                  #    Directorship and core code : Frank Neese         #
                  #        Max Planck Institute fuer Kohlenforschung    #
                  #                Kaiser Wilhelm Platz 1               #
                  #                 D-45470 Muelheim/Ruhr               #
                  #                      Germany                        #
                  #                                                     #
                  #                  All rights reserved                #
                  #                        -***-                        #
                  #######################################################



                         Program Version 5.0.4 -  RELEASE  -

 With contributions from (in alphabetic order):
   Daniel Aravena         : Magnetic Suceptibility
   Michael Atanasov       : Ab Initio Ligand Field Theory (pilot matlab implementation)
   Alexander A. Auer      : GIAO ZORA, VPT2 properties, NMR spectrum
   Ute Becker             : Parallelization
   Giovanni Bistoni       : ED, misc. LED, open-shell LED, HFLD
   Martin Brehm           : Molecular dynamics
   Dmytro Bykov           : SCF Hessian
   Vijay G. Chilkuri      : MRCI spin determinant printing, contributions to CSF-ICE
   Dipayan Datta          : RHF DLPNO-CCSD density
   Achintya Kumar Dutta   : EOM-CC, STEOM-CC
   Dmitry Ganyushin       : Spin-Orbit,Spin-Spin,Magnetic field MRCI
   Miquel Garcia          : C-PCM and meta-GGA Hessian, CC/C-PCM, Gaussian charge scheme
   Yang Guo               : DLPNO-NEVPT2, F12-NEVPT2, CIM, IAO-localization
   Andreas Hansen         : Spin unrestricted coupled pair/coupled cluster methods
   Benjamin Helmich-Paris : MC-RPA, TRAH-SCF, COSX integrals
   Lee Huntington         : MR-EOM, pCC
   Robert Izsak           : Overlap fitted RIJCOSX, COSX-SCS-MP3, EOM
   Marcus Kettner         : VPT2
   Christian Kollmar      : KDIIS, OOCD, Brueckner-CCSD(T), CCSD density, CASPT2, CASPT2-K
   Simone Kossmann        : Meta GGA functionals, TD-DFT gradient, OOMP2, MP2 Hessian
   Martin Krupicka        : Initial AUTO-CI
   Lucas Lang             : DCDCAS
   Marvin Lechner         : AUTO-CI (C++ implementation), FIC-MRCC
   Dagmar Lenk            : GEPOL surface, SMD
   Dimitrios Liakos       : Extrapolation schemes; Compound Job, initial MDCI parallelization
   Dimitrios Manganas     : Further ROCIS development; embedding schemes
   Dimitrios Pantazis     : SARC Basis sets
   Anastasios Papadopoulos: AUTO-CI, single reference methods and gradients
   Taras Petrenko         : DFT Hessian,TD-DFT gradient, ASA, ECA, R-Raman, ABS, FL, XAS/XES, NRVS
   Peter Pinski           : DLPNO-MP2, DLPNO-MP2 Gradient
   Christoph Reimann      : Effective Core Potentials
   Marius Retegan         : Local ZFS, SOC
   Christoph Riplinger    : Optimizer, TS searches, QM/MM, DLPNO-CCSD(T), (RO)-DLPNO pert. Triples
   Tobias Risthaus        : Range-separated hybrids, TD-DFT gradient, RPA, STAB
   Michael Roemelt        : Original ROCIS implementation
   Masaaki Saitow         : Open-shell DLPNO-CCSD energy and density
   Barbara Sandhoefer     : DKH picture change effects
   Avijit Sen             : IP-ROCIS
   Kantharuban Sivalingam : CASSCF convergence, NEVPT2, FIC-MRCI
   Bernardo de Souza      : ESD, SOC TD-DFT
   Georgi Stoychev        : AutoAux, RI-MP2 NMR, DLPNO-MP2 response
   Willem Van den Heuvel  : Paramagnetic NMR
   Boris Wezisla          : Elementary symmetry handling
   Frank Wennmohs         : Technical directorship


 We gratefully acknowledge several colleagues who have allowed us to
 interface, adapt or use parts of their codes:
   Stefan Grimme, W. Hujo, H. Kruse, P. Pracht,  : VdW corrections, initial TS optimization,
                  C. Bannwarth, S. Ehlert          DFT functionals, gCP, sTDA/sTD-DF
   Ed Valeev, F. Pavosevic, A. Kumar             : LibInt (2-el integral package), F12 methods
   Garnet Chan, S. Sharma, J. Yang, R. Olivares  : DMRG
   Ulf Ekstrom                                   : XCFun DFT Library
   Mihaly Kallay                                 : mrcc  (arbitrary order and MRCC methods)
   Jiri Pittner, Ondrej Demel                    : Mk-CCSD
   Frank Weinhold                                : gennbo (NPA and NBO analysis)
   Christopher J. Cramer and Donald G. Truhlar   : smd solvation model
   Lars Goerigk                                  : TD-DFT with DH, B97 family of functionals
   V. Asgeirsson, H. Jonsson                     : NEB implementation
   FAccTs GmbH                                   : IRC, NEB, NEB-TS, DLPNO-Multilevel, CI-OPT
                                                   MM, QMMM, 2- and 3-layer-ONIOM, Crystal-QMMM,
                                                   LR-CPCM, SF, NACMEs, symmetry and pop. for TD-DFT,
                                                   nearIR, NL-DFT gradient (VV10), updates on ESD,
                                                   ML-optimized integration grids
   S Lehtola, MJT Oliveira, MAL Marques          : LibXC Library
   Liviu Ungur et al                             : ANISO software


 Your calculation uses the libint2 library for the computation of 2-el integrals
 For citations please refer to: http://libint.valeyev.net

 Your ORCA version has been built with support for libXC version: 5.1.0
 For citations please refer to: https://tddft.org/programs/libxc/

 This ORCA versions uses:
   CBLAS   interface :  Fast vector & matrix operations
   LAPACKE interface :  Fast linear algebra routines
   Shared memory     :  Shared parallel matrices


================================================================================

----- Orbital basis set information -----
Your calculation utilizes the basis: def2-TZVP
   F. Weigend and R. Ahlrichs, Phys. Chem. Chem. Phys. 7, 3297 (2005).

----- AuxJ basis set information -----
Your calculation utilizes the auxiliary basis: def2/J
   F. Weigend, Phys. Chem. Chem. Phys. 8, 1057 (2006).

================================================================================
                                        WARNINGS
                       Please study these warnings very carefully!
================================================================================


WARNING: Geometry Optimization
  ===> : Switching off AutoStart
         For restart on a previous wavefunction, please use MOREAD

INFO   : the flag for use of the SHARK integral package has been found!

================================================================================
                                       INPUT FILE
================================================================================
NAME = Ibuprofeno\Ibuprofeno_B3LYP_def2-TZVP\Ibuprofeno_B3LYP_def2-TZVP.orcainp
|  1> # ORCA input file
|  2> # 
|  3> !B3LYP def2-TZVP Opt CPCM(WATER)
|  4> 
|  5> * xyz 0 1
|  6>    C        2.87144        -0.10916         1.20664
|  7>    C        2.44342        -1.05593         0.08115
|  8>    C        0.91974        -1.19419         0.07432
|  9>    C        2.94480        -0.57785        -1.29683
| 10>    C        4.45134        -0.46700        -1.37799
| 11>    C        5.26061        -1.59748        -1.21919
| 12>    C        6.65296        -1.48545        -1.25067
| 13>    C        7.26777        -0.24306        -1.46506
| 14>    C        6.45170         0.88684        -1.63168
| 15>    C        5.06022         0.77519        -1.58829
| 16>    C        8.78513        -0.15735        -1.56149
| 17>    C        9.18945         0.36486        -2.94449
| 18>    C        9.50143         0.64581        -0.48409
| 19>    O        8.76334         1.05753         0.57059
| 20>    O       10.70370         0.88871        -0.52753
| 21>    H        2.51153        -0.47336         2.17409
| 22>    H        2.47169         0.89803         1.05021
| 23>    H        3.96146        -0.03527         1.27587
| 24>    H        2.86352        -2.04692         0.29439
| 25>    H        0.43276        -0.23517        -0.13272
| 26>    H        0.56053        -1.55246         1.04510
| 27>    H        0.59584        -1.91197        -0.68619
| 28>    H        2.48660         0.39047        -1.53921
| 29>    H        2.61106        -1.27192        -2.07930
| 30>    H        4.81160        -2.57672        -1.06755
| 31>    H        7.24935        -2.38734        -1.12491
| 32>    H        6.88909         1.86918        -1.80559
| 33>    H        4.45363         1.66833        -1.72028
| 34>    H        9.18533        -1.17571        -1.46024
| 35>    H        8.84885         1.39480        -3.10544
| 36>    H        8.76335        -0.25851        -3.73883
| 37>    H       10.27752         0.36437        -3.06623
| 38>    H        7.82131         0.79140         0.54207
| 39> *
| 40> 
| 41>                          ****END OF INPUT****
================================================================================

                       *****************************
                       * Geometry Optimization Run *
                       *****************************

Geometry optimization settings:
Update method            Update   .... BFGS
Choice of coordinates    CoordSys .... Z-matrix Internals
Initial Hessian          InHess   .... Almoef's Model

Convergence Tolerances:
Energy Change            TolE     ....  5.0000e-06 Eh
Max. Gradient            TolMAXG  ....  3.0000e-04 Eh/bohr
RMS Gradient             TolRMSG  ....  1.0000e-04 Eh/bohr
Max. Displacement        TolMAXD  ....  4.0000e-03 bohr
RMS Displacement         TolRMSD  ....  2.0000e-03 bohr
Strict Convergence                ....  False
------------------------------------------------------------------------------
                        ORCA OPTIMIZATION COORDINATE SETUP
------------------------------------------------------------------------------

The optimization will be done in new redundant internal coordinates
Making redundant internal coordinates   ...  (new redundants) done
Evaluating the initial hessian          ...  (Almloef) done
Evaluating the coordinates              ...  done
Calculating the B-matrix                .... done
Calculating the G-matrix                .... done
Diagonalizing the G-matrix              .... done
Small eigenvalue found = 1.040e-02
Small eigenvalue found = 1.967e-02
Small eigenvalue found = 2.599e-02
Small eigenvalue found = 2.920e-02
The first mode is                       ....   79
The number of degrees of freedom        ....   93

    -----------------------------------------------------------------
                    Redundant Internal Coordinates


    -----------------------------------------------------------------
         Definition                    Initial Value    Approx d2E/dq
    -----------------------------------------------------------------
      1. B(C   1,C   0)                  1.5318         0.371161   
      2. B(C   2,C   1)                  1.5300         0.373636   
      3. B(C   3,C   1)                  1.5423         0.357035   
      4. B(C   4,C   3)                  1.5128         0.397954   
      5. B(C   5,C   4)                  1.3993         0.603748   
      6. B(C   6,C   5)                  1.3972         0.608477   
      7. B(C   7,C   6)                  1.4027         0.596379   
      8. B(C   8,C   7)                  1.4037         0.594104   
      9. B(C   9,C   8)                  1.3966         0.609771   
     10. B(C   9,C   4)                  1.3993         0.603845   
     11. B(C  10,C   7)                  1.5228         0.383538   
     12. B(C  11,C  10)                  1.5326         0.370022   
     13. B(C  12,C  10)                  1.5228         0.383577   
     14. B(O  13,C  12)                  1.3515         0.644537   
     15. B(O  14,C  12)                  1.2273         1.017194   
     16. B(H  15,C   0)                  1.0946         0.354074   
     17. B(H  16,C   0)                  1.0949         0.353738   
     18. B(H  17,C   0)                  1.0947         0.353919   
     19. B(H  18,C   1)                  1.0973         0.350601   
     20. B(H  19,C   2)                  1.0953         0.353126   
     21. B(H  20,C   2)                  1.0954         0.353085   
     22. B(H  21,C   2)                  1.0948         0.353861   
     23. B(H  22,C   3)                  1.0983         0.349241   
     24. B(H  23,C   3)                  1.0979         0.349805   
     25. B(H  24,C   5)                  1.0879         0.362895   
     26. B(H  25,C   6)                  1.0885         0.362047   
     27. B(H  26,C   8)                  1.0893         0.361044   
     28. B(H  27,C   9)                  1.0877         0.363167   
     29. B(H  28,C  10)                  1.0988         0.348582   
     30. B(H  29,C  11)                  1.0967         0.351381   
     31. B(H  30,C  11)                  1.0960         0.352302   
     32. B(H  31,C  11)                  1.0949         0.353729   
     33. B(H  32,H  17)                  4.0150         0.000001   
     34. B(H  32,O  13)                  0.9793         0.484340   
     35. A(C   1,C   0,H  15)          110.6027         0.323078   
     36. A(H  15,C   0,H  17)          107.0952         0.289284   
     37. A(C   1,C   0,H  17)          111.4949         0.323055   
     38. A(H  16,C   0,H  17)          108.0891         0.289240   
     39. A(C   1,C   0,H  16)          111.1982         0.323028   
     40. A(H  15,C   0,H  16)          108.1987         0.289260   
     41. A(C   0,C   1,C   3)          111.9652         0.360156   
     42. A(C   2,C   1,H  18)          107.4900         0.322908   
     43. A(C   2,C   1,C   3)          110.3510         0.360564   
     44. A(C   3,C   1,H  18)          109.2152         0.320514   
     45. A(C   0,C   1,H  18)          107.9657         0.322556   
     46. A(C   0,C   1,C   2)          109.7197         0.362959   
     47. A(C   1,C   2,H  19)          111.3766         0.323288   
     48. A(H  20,C   2,H  21)          107.7100         0.289149   
     49. A(C   1,C   2,H  20)          110.6217         0.323282   
     50. A(H  19,C   2,H  21)          108.1322         0.289155   
     51. A(C   1,C   2,H  21)          110.9162         0.323398   
     52. A(H  19,C   2,H  20)          107.9448         0.289055   
     53. A(C   1,C   3,H  23)          109.9974         0.320395   
     54. A(C   4,C   3,H  22)          109.8167         0.326062   
     55. A(H  22,C   3,H  23)          105.8581         0.288134   
     56. A(C   1,C   3,C   4)          113.2275         0.364467   
     57. A(C   1,C   3,H  22)          109.5621         0.320311   
     58. A(C   4,C   3,H  23)          108.1082         0.326148   
     59. A(C   5,C   4,C   9)          118.8540         0.429954   
     60. A(C   3,C   4,C   5)          120.7073         0.399247   
     61. A(C   3,C   4,C   9)          120.4277         0.399259   
     62. A(C   4,C   5,C   6)          120.5962         0.430544   
     63. A(C   6,C   5,H  24)          119.1182         0.352251   
     64. A(C   4,C   5,H  24)          120.2855         0.351787   
     65. A(C   5,C   6,C   7)          120.7474         0.429596   
     66. A(C   7,C   6,H  25)          120.7555         0.350918   
     67. A(C   5,C   6,H  25)          118.4860         0.352112   
     68. A(C   8,C   7,C  10)          121.7662         0.395548   
     69. A(C   6,C   7,C  10)          119.7534         0.395813   
     70. A(C   6,C   7,C   8)          118.4427         0.427758   
     71. A(C   9,C   8,H  26)          118.4970         0.352073   
     72. A(C   7,C   8,C   9)          120.7429         0.429465   
     73. A(C   7,C   8,H  26)          120.7584         0.350528   
     74. A(C   4,C   9,C   8)          120.6086         0.430721   
     75. A(C   4,C   9,H  27)          120.2992         0.351841   
     76. A(C   8,C   9,H  27)          119.0923         0.352422   
     77. A(C   7,C  10,C  11)          109.8271         0.364394   
     78. A(C  12,C  10,H  28)          104.6127         0.323995   
     79. A(C  11,C  10,H  28)          107.6285         0.322089   
     80. A(C   7,C  10,H  28)          107.7518         0.323990   
     81. A(C  11,C  10,C  12)          109.5509         0.364401   
     82. A(C   7,C  10,C  12)          116.9732         0.366646   
     83. A(H  30,C  11,H  31)          107.7904         0.289032   
     84. A(H  29,C  11,H  31)          107.0228         0.288913   
     85. A(C  10,C  11,H  31)          111.2454         0.322864   
     86. A(H  29,C  11,H  30)          107.8820         0.288731   
     87. A(C  10,C  11,H  30)          110.9570         0.322650   
     88. A(C  10,C  11,H  29)          111.7467         0.322511   
     89. A(O  13,C  12,O  14)          120.1518         0.472006   
     90. A(C  10,C  12,O  14)          122.6916         0.432383   
     91. A(C  10,C  12,O  13)          117.1228         0.398691   
     92. A(C  12,O  13,H  32)          114.8227         0.368078   
     93. D(H  18,C   1,C   0,H  16)   -179.5188         0.011008   
     94. D(H  18,C   1,C   0,H  17)     59.7736         0.011008   
     95. D(C   2,C   1,C   0,H  16)    -62.6561         0.011008   
     96. D(C   3,C   1,C   0,H  15)   -179.5306         0.011008   
     97. D(C   2,C   1,C   0,H  17)    176.6363         0.011008   
     98. D(C   2,C   1,C   0,H  15)     57.5868         0.011008   
     99. D(C   3,C   1,C   0,H  16)     60.2264         0.011008   
    100. D(C   3,C   1,C   0,H  17)    -60.4812         0.011008   
    101. D(H  18,C   1,C   0,H  15)    -59.2759         0.011008   
    102. D(H  19,C   2,C   1,C   3)    -61.0575         0.011147   
    103. D(H  19,C   2,C   1,H  18)    179.9351         0.011147   
    104. D(H  21,C   2,C   1,C   0)   -176.7368         0.011147   
    105. D(H  20,C   2,C   1,C   3)    178.8889         0.011147   
    106. D(H  20,C   2,C   1,H  18)     59.8815         0.011147   
    107. D(H  21,C   2,C   1,H  18)    -59.5758         0.011147   
    108. D(H  21,C   2,C   1,C   3)     59.4317         0.011147   
    109. D(H  19,C   2,C   1,C   0)     62.7741         0.011147   
    110. D(H  20,C   2,C   1,C   0)    -57.2795         0.011147   
    111. D(H  23,C   3,C   1,C   2)    -56.8354         0.010239   
    112. D(H  23,C   3,C   1,C   0)   -179.3594         0.010239   
    113. D(H  22,C   3,C   1,H  18)    177.0880         0.010239   
    114. D(H  22,C   3,C   1,C   2)     59.1356         0.010239   
    115. D(H  22,C   3,C   1,C   0)    -63.3884         0.010239   
    116. D(C   4,C   3,C   1,H  18)    -59.9547         0.010239   
    117. D(C   4,C   3,C   1,C   2)   -177.9072         0.010239   
    118. D(H  23,C   3,C   1,H  18)     61.1170         0.010239   
    119. D(C   4,C   3,C   1,C   0)     59.5689         0.010239   
    120. D(C   9,C   4,C   3,C   1)   -116.3071         0.011759   
    121. D(C   5,C   4,C   3,H  23)    -59.6628         0.011759   
    122. D(C   5,C   4,C   3,H  22)   -174.7141         0.011759   
    123. D(C   5,C   4,C   3,C   1)     62.4696         0.011759   
    124. D(C   9,C   4,C   3,H  23)    121.5606         0.011759   
    125. D(C   9,C   4,C   3,H  22)      6.5092         0.011759   
    126. D(H  24,C   5,C   4,C   9)   -179.1927         0.025146   
    127. D(H  24,C   5,C   4,C   3)      2.0116         0.025146   
    128. D(C   6,C   5,C   4,C   9)      0.9153         0.025146   
    129. D(C   6,C   5,C   4,C   3)   -177.8804         0.025146   
    130. D(H  25,C   6,C   5,H  24)      0.1930         0.025563   
    131. D(H  25,C   6,C   5,C   4)   -179.9137         0.025563   
    132. D(C   7,C   6,C   5,C   4)     -1.1184         0.025563   
    133. D(C   7,C   6,C   5,H  24)    178.9883         0.025563   
    134. D(C  10,C   7,C   6,H  25)      1.6854         0.024503   
    135. D(C  10,C   7,C   6,C   5)   -177.0825         0.024503   
    136. D(C   8,C   7,C   6,H  25)    179.4940         0.024503   
    137. D(C   8,C   7,C   6,C   5)      0.7262         0.024503   
    138. D(H  26,C   8,C   7,C  10)     -1.9115         0.024307   
    139. D(H  26,C   8,C   7,C   6)   -179.6738         0.024307   
    140. D(C   9,C   8,C   7,C  10)    177.6007         0.024307   
    141. D(C   9,C   8,C   7,C   6)     -0.1616         0.024307   
    142. D(H  27,C   9,C   8,H  26)     -0.5020         0.025678   
    143. D(H  27,C   9,C   8,C   7)    179.9750         0.025678   
    144. D(C   4,C   9,C   8,H  26)    179.5031         0.025678   
    145. D(C   4,C   9,C   8,C   7)     -0.0200         0.025678   
    146. D(H  27,C   9,C   4,C   5)    179.6538         0.025154   
    147. D(H  27,C   9,C   4,C   3)     -1.5471         0.025154   
    148. D(C   8,C   9,C   4,C   5)     -0.3513         0.025154   
    149. D(C   8,C   9,C   4,C   3)    178.4478         0.025154   
    150. D(H  28,C  10,C   7,C   6)      1.3221         0.010964   
    151. D(C  12,C  10,C   7,C   8)     66.1910         0.010964   
    152. D(C  12,C  10,C   7,C   6)   -116.0754         0.010964   
    153. D(C  11,C  10,C   7,C   8)    -59.4463         0.010964   
    154. D(H  28,C  10,C   7,C   8)   -176.4116         0.010964   
    155. D(C  11,C  10,C   7,C   6)    118.2873         0.010964   
    156. D(H  31,C  11,C  10,H  28)    -58.6716         0.010945   
    157. D(H  31,C  11,C  10,C   7)   -175.7140         0.010945   
    158. D(H  30,C  11,C  10,H  28)     61.3246         0.010945   
    159. D(H  30,C  11,C  10,C  12)    174.5130         0.010945   
    160. D(H  30,C  11,C  10,C   7)    -55.7179         0.010945   
    161. D(H  29,C  11,C  10,H  28)   -178.2259         0.010945   
    162. D(H  31,C  11,C  10,C  12)     54.5168         0.010945   
    163. D(H  29,C  11,C  10,C  12)    -65.0375         0.010945   
    164. D(H  29,C  11,C  10,C   7)     64.7316         0.010945   
    165. D(O  14,C  12,C  10,H  28)     67.9025         0.010967   
    166. D(O  14,C  12,C  10,C  11)    -47.2292         0.010967   
    167. D(O  14,C  12,C  10,C   7)   -173.0041         0.010967   
    168. D(O  13,C  12,C  10,H  28)   -109.9809         0.010967   
    169. D(O  13,C  12,C  10,C  11)    134.8874         0.010967   
    170. D(O  13,C  12,C  10,C   7)      9.1125         0.010967   
    171. D(H  32,O  13,C  12,O  14)   -177.6843         0.030660   
    172. D(H  32,O  13,C  12,C  10)      0.2557         0.030660   
    -----------------------------------------------------------------

Number of atoms                         .... 33
Number of degrees of freedom            .... 172

         *************************************************************
         *                GEOMETRY OPTIMIZATION CYCLE   1            *
         *************************************************************
---------------------------------
CARTESIAN COORDINATES (ANGSTROEM)
---------------------------------
  C      2.871440   -0.109160    1.206640
  C      2.443420   -1.055930    0.081150
  C      0.919740   -1.194190    0.074320
  C      2.944800   -0.577850   -1.296830
  C      4.451340   -0.467000   -1.377990
  C      5.260610   -1.597480   -1.219190
  C      6.652960   -1.485450   -1.250670
  C      7.267770   -0.243060   -1.465060
  C      6.451700    0.886840   -1.631680
  C      5.060220    0.775190   -1.588290
  C      8.785130   -0.157350   -1.561490
  C      9.189450    0.364860   -2.944490
  C      9.501430    0.645810   -0.484090
  O      8.763340    1.057530    0.570590
  O     10.703700    0.888710   -0.527530
  H      2.511530   -0.473360    2.174090
  H      2.471690    0.898030    1.050210
  H      3.961460   -0.035270    1.275870
  H      2.863520   -2.046920    0.294390
  H      0.432760   -0.235170   -0.132720
  H      0.560530   -1.552460    1.045100
  H      0.595840   -1.911970   -0.686190
  H      2.486600    0.390470   -1.539210
  H      2.611060   -1.271920   -2.079300
  H      4.811600   -2.576720   -1.067550
  H      7.249350   -2.387340   -1.124910
  H      6.889090    1.869180   -1.805590
  H      4.453630    1.668330   -1.720280
  H      9.185330   -1.175710   -1.460240
  H      8.848850    1.394800   -3.105440
  H      8.763350   -0.258510   -3.738830
  H     10.277520    0.364370   -3.066230
  H      7.821310    0.791400    0.542070

----------------------------
CARTESIAN COORDINATES (A.U.)
----------------------------
  NO LB      ZA    FRAG     MASS         X           Y           Z
   0 C     6.0000    0    12.011    5.426235   -0.206283    2.280219
   1 C     6.0000    0    12.011    4.617395   -1.995419    0.153351
   2 C     6.0000    0    12.011    1.738057   -2.256692    0.140444
   3 C     6.0000    0    12.011    5.564866   -1.091978   -2.450654
   4 C     6.0000    0    12.011    8.411814   -0.882502   -2.604024
   5 C     6.0000    0    12.011    9.941112   -3.018800   -2.303935
   6 C     6.0000    0    12.011   12.572272   -2.807094   -2.363424
   7 C     6.0000    0    12.011   13.734095   -0.459317   -2.768562
   8 C     6.0000    0    12.011   12.191946    1.675885   -3.083428
   9 C     6.0000    0    12.011    9.562430    1.464897   -3.001433
  10 C     6.0000    0    12.011   16.601490   -0.297348   -2.950788
  11 C     6.0000    0    12.011   17.365544    0.689485   -5.564280
  12 C     6.0000    0    12.011   17.955101    1.220404   -0.914798
  13 O     8.0000    0    15.999   16.560313    1.998442    1.078259
  14 O     8.0000    0    15.999   20.227062    1.679419   -0.996887
  15 H     1.0000    0     1.008    4.746104   -0.894521    4.108435
  16 H     1.0000    0     1.008    4.670817    1.697031    1.984609
  17 H     1.0000    0     1.008    7.486074   -0.066651    2.411045
  18 H     1.0000    0     1.008    5.411269   -3.868118    0.556316
  19 H     1.0000    0     1.008    0.817798   -0.444407   -0.250804
  20 H     1.0000    0     1.008    1.059248   -2.933724    1.974953
  21 H     1.0000    0     1.008    1.125974   -3.613100   -1.296711
  22 H     1.0000    0     1.008    4.698993    0.737881   -2.908685
  23 H     1.0000    0     1.008    4.934188   -2.403580   -3.929308
  24 H     1.0000    0     1.008    9.092606   -4.869295   -2.017377
  25 H     1.0000    0     1.008   13.699286   -4.511419   -2.125772
  26 H     1.0000    0     1.008   13.018493    3.532238   -3.412071
  27 H     1.0000    0     1.008    8.416141    3.152687   -3.250858
  28 H     1.0000    0     1.008   17.357758   -2.221770   -2.759454
  29 H     1.0000    0     1.008   16.721903    2.635790   -5.868431
  30 H     1.0000    0     1.008   16.560332   -0.488513   -7.065365
  31 H     1.0000    0     1.008   19.421698    0.688560   -5.794335
  32 H     1.0000    0     1.008   14.780134    1.495529    1.024364

--------------------------------
INTERNAL COORDINATES (ANGSTROEM)
--------------------------------
 C      0   0   0     0.000000000000     0.00000000     0.00000000
 C      1   0   0     1.531764437960     0.00000000     0.00000000
 C      2   1   0     1.529955299641   109.71973206     0.00000000
 C      2   1   3     1.542326577350   111.96519660   122.88251102
 C      4   2   1     1.512791274334   113.22748451    59.56887438
 C      5   4   2     1.399328554450   120.70728660    62.46955018
 C      6   5   4     1.397204435221   120.59622258   182.11960192
 C      7   6   5     1.402671494078   120.74737498   358.88155506
 C      8   7   6     1.403711679548   118.44273519     0.72615693
 C      9   8   7     1.396626293967   120.74293145   359.83837370
 C      8   7   6     1.522834961051   119.75340072   182.91749932
 C     11   8   7     1.532601365816   109.82714393   118.28729088
 C     11   8   7     1.522807419078   116.97319568   243.92464244
 O     13  11   8     1.351532503827   117.12275651     9.11247001
 O     13  11   8     1.227330679361   122.69156655   186.99590401
 H      1   2   3     1.094594148806   110.60270271    57.58684016
 H      1   2   3     1.094852548748   111.19821006   297.34386030
 H      1   2   3     1.094712804986   111.49486478   176.63628257
 H      2   1   3     1.097276850982   107.96568424   243.13730192
 H      3   2   1     1.095323898397   111.37658755    62.77406767
 H      3   2   1     1.095355205128   110.62166734   302.72048343
 H      3   2   1     1.094757872089   110.91622606   183.26323173
 H      4   2   1     1.098334615133   109.56212912   296.61159631
 H      4   2   1     1.097895647774   109.99744673   180.64063390
 H      6   5   4     1.087895053440   120.28550824     2.01160704
 H      7   6   5     1.088532122539   118.48603852   180.08625382
 H      9   8   7     1.089287187017   120.75836235   180.32618116
 H     10   9   8     1.087691062664   119.09225864   179.97499741
 H     11   8   7     1.098848803112   107.75183126     1.32205913
 H     12  11   8     1.096672086861   111.74665593    64.73164267
 H     12  11   8     1.095959580687   110.95695803   304.28213132
 H     12  11   8     1.094859439654   111.24538776   184.28599748
 H     14  13  11     0.979315622361   114.82266837     0.25572160

---------------------------
INTERNAL COORDINATES (A.U.)
---------------------------
 C      0   0   0     0.000000000000     0.00000000     0.00000000
 C      1   0   0     2.894615289425     0.00000000     0.00000000
 C      2   1   0     2.891196513463   109.71973206     0.00000000
 C      2   1   3     2.914574840260   111.96519660   122.88251102
 C      4   2   1     2.858761206276   113.22748451    59.56887438
 C      5   4   2     2.644347739287   120.70728660    62.46955018
 C      6   5   4     2.640333735667   120.59622258   182.11960192
 C      7   6   5     2.650664979666   120.74737498   358.88155506
 C      8   7   6     2.652630645333   118.44273519     0.72615693
 C      9   8   7     2.639241207031   120.74293145   359.83837370
 C      8   7   6     2.877741023548   119.75340072   182.91749932
 C     11   8   7     2.896196853865   109.82714393   118.28729088
 C     11   8   7     2.877688976761   116.97319568   243.92464244
 O     13  11   8     2.554026293325   117.12275651     9.11247001
 O     13  11   8     2.319318859751   122.69156655   186.99590401
 H      1   2   3     2.068483169036   110.60270271    57.58684016
 H      1   2   3     2.068971474159   111.19821006   297.34386030
 H      1   2   3     2.068707396720   111.49486478   176.63628257
 H      2   1   3     2.073552741447   107.96568424   243.13730192
 H      3   2   1     2.069862195910   111.37658755    62.77406767
 H      3   2   1     2.069921357056   110.62166734   302.72048343
 H      3   2   1     2.068792561202   110.91622606   183.26323173
 H      4   2   1     2.075551626008   109.56212912   296.61159631
 H      4   2   1     2.074722097916   109.99744673   180.64063390
 H      6   5   4     2.055823713450   120.28550824     2.01160704
 H      7   6   5     2.057027599575   118.48603852   180.08625382
 H      9   8   7     2.058454464652   120.75836235   180.32618116
 H     10   9   8     2.055438226749   119.09225864   179.97499741
 H     11   8   7     2.076523300468   107.75183126     1.32205913
 H     12  11   8     2.072409902883   111.74665593    64.73164267
 H     12  11   8     2.071063461346   110.95695803   304.28213132
 H     12  11   8     2.068984496085   111.24538776   184.28599748
 H     14  13  11     1.850638324933   114.82266837     0.25572160

---------------------
BASIS SET INFORMATION
---------------------
There are 3 groups of distinct atoms

 Group   1 Type C   : 11s6p2d1f contracted to 5s3p2d1f pattern {62111/411/11/1}
 Group   2 Type O   : 11s6p2d1f contracted to 5s3p2d1f pattern {62111/411/11/1}
 Group   3 Type H   : 5s1p contracted to 3s1p pattern {311/1}

Atom   0C    basis set group =>   1
Atom   1C    basis set group =>   1
Atom   2C    basis set group =>   1
Atom   3C    basis set group =>   1
Atom   4C    basis set group =>   1
Atom   5C    basis set group =>   1
Atom   6C    basis set group =>   1
Atom   7C    basis set group =>   1
Atom   8C    basis set group =>   1
Atom   9C    basis set group =>   1
Atom  10C    basis set group =>   1
Atom  11C    basis set group =>   1
Atom  12C    basis set group =>   1
Atom  13O    basis set group =>   2
Atom  14O    basis set group =>   2
Atom  15H    basis set group =>   3
Atom  16H    basis set group =>   3
Atom  17H    basis set group =>   3
Atom  18H    basis set group =>   3
Atom  19H    basis set group =>   3
Atom  20H    basis set group =>   3
Atom  21H    basis set group =>   3
Atom  22H    basis set group =>   3
Atom  23H    basis set group =>   3
Atom  24H    basis set group =>   3
Atom  25H    basis set group =>   3
Atom  26H    basis set group =>   3
Atom  27H    basis set group =>   3
Atom  28H    basis set group =>   3
Atom  29H    basis set group =>   3
Atom  30H    basis set group =>   3
Atom  31H    basis set group =>   3
Atom  32H    basis set group =>   3
---------------------------------
AUXILIARY/J BASIS SET INFORMATION
---------------------------------
There are 3 groups of distinct atoms

 Group   1 Type C   : 12s5p4d2f1g contracted to 6s4p3d1f1g pattern {711111/2111/211/2/1}
 Group   2 Type O   : 12s5p4d2f1g contracted to 6s4p3d1f1g pattern {711111/2111/211/2/1}
 Group   3 Type H   : 5s2p1d contracted to 3s1p1d pattern {311/2/1}

Atom   0C    basis set group =>   1
Atom   1C    basis set group =>   1
Atom   2C    basis set group =>   1
Atom   3C    basis set group =>   1
Atom   4C    basis set group =>   1
Atom   5C    basis set group =>   1
Atom   6C    basis set group =>   1
Atom   7C    basis set group =>   1
Atom   8C    basis set group =>   1
Atom   9C    basis set group =>   1
Atom  10C    basis set group =>   1
Atom  11C    basis set group =>   1
Atom  12C    basis set group =>   1
Atom  13O    basis set group =>   2
Atom  14O    basis set group =>   2
Atom  15H    basis set group =>   3
Atom  16H    basis set group =>   3
Atom  17H    basis set group =>   3
Atom  18H    basis set group =>   3
Atom  19H    basis set group =>   3
Atom  20H    basis set group =>   3
Atom  21H    basis set group =>   3
Atom  22H    basis set group =>   3
Atom  23H    basis set group =>   3
Atom  24H    basis set group =>   3
Atom  25H    basis set group =>   3
Atom  26H    basis set group =>   3
Atom  27H    basis set group =>   3
Atom  28H    basis set group =>   3
Atom  29H    basis set group =>   3
Atom  30H    basis set group =>   3
Atom  31H    basis set group =>   3
Atom  32H    basis set group =>   3
------------------------------------------------------------------------------
                           ORCA GTO INTEGRAL CALCULATION
                           -- RI-GTO INTEGRALS CHOSEN --
------------------------------------------------------------------------------
------------------------------------------------------------------------------
                   ___                                                        
                  /   \      - P O W E R E D   B Y -                         
                 /     \                                                     
                 |  |  |   _    _      __       _____    __    __             
                 |  |  |  | |  | |    /  \     |  _  \  |  |  /  |          
                  \  \/   | |  | |   /    \    | | | |  |  | /  /          
                 / \  \   | |__| |  /  /\  \   | |_| |  |  |/  /          
                |  |  |   |  __  | /  /__\  \  |    /   |      \           
                |  |  |   | |  | | |   __   |  |    \   |  |\   \          
                \     /   | |  | | |  |  |  |  | |\  \  |  | \   \       
                 \___/    |_|  |_| |__|  |__|  |_| \__\ |__|  \__/        
                                                                              
                      - O R C A' S   B I G   F R I E N D -                    
                                      &                                       
                       - I N T E G R A L  F E E D E R -                       
                                                                              
 v1 FN, 2020, v2 2021                                                         
------------------------------------------------------------------------------


Reading SHARK input file Ibuprofeno\Ibuprofeno_B3LYP_def2-TZVP\Ibuprofeno_B3LYP_def2-TZVP.orcainp.SHARKINP.tmp ... ok
----------------------
SHARK INTEGRAL PACKAGE
----------------------

Number of atoms                             ...     33
Number of basis functions                   ...    573
Number of shells                            ...    237
Maximum angular momentum                    ...      3
Integral batch strategy                     ... SHARK/LIBINT Hybrid
RI-J (if used) integral strategy            ... SPLIT-RIJ (Revised 2003 algorithm where possible)
Printlevel                                  ...      1
Contraction scheme used                     ... SEGMENTED contraction
Coulomb Range Separation                    ... NOT USED
Exchange Range Separation                   ... NOT USED
Finite Nucleus Model                        ... NOT USED
Auxiliary Coulomb fitting basis             ... AVAILABLE
   # of basis functions in Aux-J            ...    933
   # of shells in Aux-J                     ...    315
   Maximum angular momentum in Aux-J        ...      4
Auxiliary J/K fitting basis                 ... NOT available
Auxiliary Correlation fitting basis         ... NOT available
Auxiliary 'external' fitting basis          ... NOT available
Integral threshold                          ...     2.500000e-11
Primitive cut-off                           ...     2.500000e-12
Primitive pair pre-selection threshold      ...     2.500000e-12

Calculating pre-screening integrals         ... done (  0.1 sec) Dimension = 237
Organizing shell pair data                  ... done (  0.1 sec)
Shell pair information
Total number of shell pairs                 ...     28203
Shell pairs after pre-screening             ...     21441
Total number of primitive shell pairs       ...     83820
Primitive shell pairs kept                  ...     44601
          la=0 lb=0:   6206 shell pairs
          la=1 lb=0:   6332 shell pairs
          la=1 lb=1:   1633 shell pairs
          la=2 lb=0:   2915 shell pairs
          la=2 lb=1:   1476 shell pairs
          la=2 lb=2:    357 shell pairs
          la=3 lb=0:   1393 shell pairs
          la=3 lb=1:    717 shell pairs
          la=3 lb=2:    323 shell pairs
          la=3 lb=3:     89 shell pairs

Calculating one electron integrals          ... done (  0.0 sec)
Calculating RI/J V-Matrix + Cholesky decomp.... done (  0.0 sec)
Calculating Nuclear repulsion               ... done (  0.0 sec) ENN=    969.625574162888 Eh

SHARK setup successfully completed in   0.4 seconds

Maximum memory used throughout the entire GTOINT-calculation: 248.7 MB
-------------------------------------------------------------------------------
                                 ORCA SCF
-------------------------------------------------------------------------------

------------
SCF SETTINGS
------------
Hamiltonian:
 Density Functional     Method          .... DFT(GTOs)
 Exchange Functional    Exchange        .... B88
   X-Alpha parameter    XAlpha          ....  0.666667
   Becke's b parameter  XBeta           ....  0.004200
 Correlation Functional Correlation     .... LYP
 LDA part of GGA corr.  LDAOpt          .... VWN-5
 Gradients option       PostSCFGGA      .... off
 Hybrid DFT is turned on
   Fraction HF Exchange ScalHFX         ....  0.200000
   Scaling of DF-GGA-X  ScalDFX         ....  0.720000
   Scaling of DF-GGA-C  ScalDFC         ....  0.810000
   Scaling of DF-LDA-C  ScalLDAC        ....  1.000000
   Perturbative correction              ....  0.000000
   Density functional embedding theory  .... OFF
   NL short-range parameter             ....  4.800000
 RI-approximation to the Coulomb term is turned on
   Number of AuxJ basis functions       .... 933
   RIJ-COSX (HFX calculated with COS-X)).... on


General Settings:
 Integral files         IntName         .... Ibuprofeno\Ibuprofeno_B3LYP_def2-TZVP\Ibuprofeno_B3LYP_def2-TZVP.orcainp
 Hartree-Fock type      HFTyp           .... RHF
 Total Charge           Charge          ....    0
 Multiplicity           Mult            ....    1
 Number of Electrons    NEL             ....  112
 Basis Dimension        Dim             ....  573
 Nuclear Repulsion      ENuc            ....    969.6255741629 Eh

Convergence Acceleration:
 DIIS                   CNVDIIS         .... on
   Start iteration      DIISMaxIt       ....    12
   Startup error        DIISStart       ....  0.200000
   # of expansion vecs  DIISMaxEq       ....     5
   Bias factor          DIISBfac        ....   1.050
   Max. coefficient     DIISMaxC        ....  10.000
 Trust-Rad. Augm. Hess. CNVTRAH         .... auto
   Auto Start mean grad. ratio tolernc. ....  1.125000
   Auto Start start iteration           ....    20
   Auto Start num. interpolation iter.  ....    10
   Max. Number of Micro iterations      ....    16
   Max. Number of Macro iterations      .... Maxiter - #DIIS iter
   Number of Davidson start vectors     ....     2
   Converg. threshold I  (grad. norm)   ....   1.000e-05
   Converg. threshold II (energy diff.) ....   1.000e-08
   Grad. Scal. Fac. for Micro threshold ....   0.100
   Minimum threshold for Micro iter.    ....   0.010
   NR start threshold (gradient norm)   ....   0.001
   Initial trust radius                 ....   0.400
   Minimum AH scaling param. (alpha)    ....   1.000
   Maximum AH scaling param. (alpha)    .... 1000.000
   Orbital update algorithm             .... Taylor
   White noise on init. David. guess    .... on
   Maximum white noise                  ....   0.010
   Quad. conv. algorithm                .... NR
 SOSCF                  CNVSOSCF        .... on
   Start iteration      SOSCFMaxIt      ....   150
   Startup grad/error   SOSCFStart      ....  0.003300
 Level Shifting         CNVShift        .... on
   Level shift para.    LevelShift      ....    0.2500
   Turn off err/grad.   ShiftErr        ....    0.0010
 Zerner damping         CNVZerner       .... off
 Static damping         CNVDamp         .... on
   Fraction old density DampFac         ....    0.7000
   Max. Damping (<1)    DampMax         ....    0.9800
   Min. Damping (>=0)   DampMin         ....    0.0000
   Turn off err/grad.   DampErr         ....    0.1000
 Fernandez-Rico         CNVRico         .... off

SCF Procedure:
 Maximum # iterations   MaxIter         ....   125
 SCF integral mode      SCFMode         .... Direct
   Integral package                     .... SHARK and LIBINT hybrid scheme
 Reset frequency        DirectResetFreq ....    20
 Integral Threshold     Thresh          ....  2.500e-11 Eh
 Primitive CutOff       TCut            ....  2.500e-12 Eh

Convergence Tolerance:
 Convergence Check Mode ConvCheckMode   .... Total+1el-Energy
 Convergence forced     ConvForced      .... 0
 Energy Change          TolE            ....  1.000e-08 Eh
 1-El. energy change                    ....  1.000e-05 Eh
 Orbital Gradient       TolG            ....  1.000e-05
 Orbital Rotation angle TolX            ....  1.000e-05
 DIIS Error             TolErr          ....  5.000e-07


Diagonalization of the overlap matrix:
Smallest eigenvalue                        ... 6.612e-06
Time for diagonalization                   ...    0.018 sec
Threshold for overlap eigenvalues          ... 1.000e-08
Number of eigenvalues below threshold      ... 0
Time for construction of square roots      ...    0.014 sec
Total time needed                          ...    0.033 sec

Time for model grid setup =    0.320 sec

------------------------------
INITIAL GUESS: MODEL POTENTIAL
------------------------------
Loading Hartree-Fock densities                     ... done
Calculating cut-offs                               ... done
Initializing the effective Hamiltonian             ... done
Setting up the integral package (SHARK)            ... done
Starting the Coulomb interaction                   ... done (   0.6 sec)
Reading the grid                                   ... done
Mapping shells                                     ... done
Starting the XC term evaluation                    ... done (   0.6 sec)
  promolecular density results
     # of electrons  =    111.999017292
     EX              =    -88.582257370
     EC              =     -3.734733249
     EX+EC           =    -92.316990619
Transforming the Hamiltonian                       ... done (   0.0 sec)
Diagonalizing the Hamiltonian                      ... done (   0.0 sec)
Back transforming the eigenvectors                 ... done (   0.0 sec)
Now organizing SCF variables                       ... done
                      ------------------
                      INITIAL GUESS DONE (   1.5 sec)
                      ------------------
-------------------
DFT GRID GENERATION
-------------------

General Integration Accuracy     IntAcc      ... 4.388
Radial Grid Type                 RadialGrid  ... OptM3 with GC (2021)
Angular Grid (max. ang.)         AngularGrid ... 4 (Lebedev-302)
Angular grid pruning method      GridPruning ... 4 (adaptive)
Weight generation scheme         WeightScheme... Becke
Basis function cutoff            BFCut       ... 1.0000e-11
Integration weight cutoff        WCut        ... 1.0000e-14
Angular grids for H and He will be reduced by one unit
Partially contracted basis set               ... off
Rotationally invariant grid construction     ... off

Total number of grid points                  ...   146945
Total number of batches                      ...     2312
Average number of points per batch           ...       63
Average number of grid points per atom       ...     4453
Time for grid setup =    1.111 sec

--------------------
COSX GRID GENERATION
--------------------

GRIDX 1
-------
General Integration Accuracy     IntAcc      ... 3.816
Radial Grid Type                 RadialGrid  ... OptM3 with GC (2021)
Angular Grid (max. ang.)         AngularGrid ... 1 (Lebedev-50)
Angular grid pruning method      GridPruning ... 4 (adaptive)
Weight generation scheme         WeightScheme... Becke
Basis function cutoff            BFCut       ... 1.0000e-11
Integration weight cutoff        WCut        ... 1.0000e-14
Angular grids for H and He will be reduced by one unit
Partially contracted basis set               ... on
Rotationally invariant grid construction     ... off

Total number of grid points                  ...    18738
Total number of batches                      ...      308
Average number of points per batch           ...       60
Average number of grid points per atom       ...      568
UseSFitting                                  ... on

GRIDX 2
-------
General Integration Accuracy     IntAcc      ... 4.020
Radial Grid Type                 RadialGrid  ... OptM3 with GC (2021)
Angular Grid (max. ang.)         AngularGrid ... 2 (Lebedev-110)
Angular grid pruning method      GridPruning ... 4 (adaptive)
Weight generation scheme         WeightScheme... Becke
Basis function cutoff            BFCut       ... 1.0000e-11
Integration weight cutoff        WCut        ... 1.0000e-14
Angular grids for H and He will be reduced by one unit
Partially contracted basis set               ... on
Rotationally invariant grid construction     ... off

Total number of grid points                  ...    39776
Total number of batches                      ...      637
Average number of points per batch           ...       62
Average number of grid points per atom       ...     1205
UseSFitting                                  ... on

GRIDX 3
-------
General Integration Accuracy     IntAcc      ... 4.338
Radial Grid Type                 RadialGrid  ... OptM3 with GC (2021)
Angular Grid (max. ang.)         AngularGrid ... 3 (Lebedev-194)
Angular grid pruning method      GridPruning ... 4 (adaptive)
Weight generation scheme         WeightScheme... Becke
Basis function cutoff            BFCut       ... 1.0000e-11
Integration weight cutoff        WCut        ... 1.0000e-14
Angular grids for H and He will be reduced by one unit
Partially contracted basis set               ... on
Rotationally invariant grid construction     ... off

Total number of grid points                  ...    86680
Total number of batches                      ...     1371
Average number of points per batch           ...       63
Average number of grid points per atom       ...     2627
UseSFitting                                  ... on

Time for X-Grid setup             =    1.894 sec


--------------------
CPCM SOLVATION MODEL
--------------------
CPCM parameters:
  Epsilon                                         ...      80.4000
  Refrac                                          ...       1.3300
  Rsolv                                           ...       1.3000
  Surface type                                    ... GAUSSIAN VDW
  Epsilon function type                           ...         CPCM
Radii:
 Radius for C  used is    3.8550 Bohr (=   2.0400 Ang.)
 Radius for O  used is    3.4469 Bohr (=   1.8240 Ang.)
 Radius for H  used is    2.4944 Bohr (=   1.3200 Ang.)
Calculating surface                               ...        done! (  0.0s)
GEPOL surface points                              ...         1785
GEPOL Volume                                      ...    1833.4013
GEPOL Surface-area                                ...     979.7459
Calculating surface distance matrix               ...        done! (  0.0s)
Performing Cholesky decomposition & store         ...        done! (  0.0s)
Overall time for CPCM initialization              ...                 0.1s
--------------
SCF ITERATIONS
--------------
ITER       Energy         Delta-E        Max-DP      RMS-DP      [F,P]     Damp
               ***  Starting incremental Fock matrix formation  ***
  0   -656.0470479772   0.000000000000 0.26229246  0.00107933  0.3015994 0.7000
  1   -656.2854377506  -0.238389773419 0.22636554  0.00084482  0.1144900 0.7000
                               ***Turning on DIIS***
  2   -656.3785485856  -0.093110834970 0.23848360  0.00121528  0.0383606 0.0000
  3   -656.5202677161  -0.141719130474 0.20851353  0.00068938  0.0574241 0.0000
  4   -656.5546982861  -0.034430570064 0.04279760  0.00019607  0.0197064 0.0000
  5   -656.5566979922  -0.001999706069 0.02624942  0.00009942  0.0123738 0.0000
                      *** Initiating the SOSCF procedure ***
                           *** Shutting down DIIS ***
                      *** Re-Reading the Fockian *** 
                      *** Removing any level shift *** 
ITER      Energy       Delta-E        Grad      Rot      Max-DP    RMS-DP
  6   -656.55694918  -0.0002511924  0.000253  0.000253  0.005642  0.000037
               *** Restarting incremental Fock matrix formation ***
  7   -656.55694444   0.0000047410  0.000221  0.000692  0.004184  0.000026
  8   -656.55694184   0.0000026022  0.000420  0.000461  0.001131  0.000008
  9   -656.55694703  -0.0000051864  0.000046  0.000096  0.000339  0.000003
 10   -656.55694688   0.0000001493  0.000071  0.000060  0.000242  0.000001
 11   -656.55694712  -0.0000002383  0.000006  0.000022  0.000196  0.000002
 12   -656.55694711   0.0000000046  0.000010  0.000017  0.000066  0.000001
                  ***Gradient check signals convergence***
              ***Rediagonalizing the Fockian in SOSCF/NRSCF***

               *****************************************************
               *                     SUCCESS                       *
               *           SCF CONVERGED AFTER  13 CYCLES          *
               *****************************************************

Old exchange energy                            =    -18.057705231 Eh
New exchange energy                            =    -18.057715990 Eh
Exchange energy change after final integration =     -0.000010759 Eh
Total energy after final integration           =   -656.556957867 Eh
Final COS-X integration done in                =    44.142 sec

----------------
TOTAL SCF ENERGY
----------------

Total Energy       :         -656.55695787 Eh          -17865.82310 eV

Components:
Nuclear Repulsion  :          969.62557416 Eh           26384.85325 eV
Electronic Energy  :        -1626.18253203 Eh          -44250.67636 eV
One Electron Energy:        -2813.66471007 Eh          -76563.70918 eV
Two Electron Energy:         1187.48217804 Eh           32313.03283 eV
Max COSX asymmetry :            0.00000118 Eh               0.00003 eV
CPCM Dielectric    :           -0.01994755 Eh              -0.54280 eV

Virial components:
Potential Energy   :        -1309.84004084 Eh          -35642.55954 eV
Kinetic Energy     :          653.28308298 Eh           17776.73644 eV
Virial Ratio       :            2.00501142


DFT components:
N(Alpha)           :       55.999997255586 electrons
N(Beta)            :       55.999997255586 electrons
N(Total)           :      111.999994511172 electrons
E(X)               :      -71.710010334938 Eh       
E(C)               :       -4.412554213420 Eh       
E(XC)              :      -76.122564548357 Eh       
DFET-embed. en.    :        0.000000000000 Eh       
CPCM Solvation Model Properties:
Surface-charge          :           -0.03565244
Charge-correction       :           -0.00000204 Eh              -0.00006 eV
Free-energy (cav+disp)  :  This term is not implemented in the current solvation scheme

---------------
SCF CONVERGENCE
---------------

  Last Energy change         ...    3.8663e-09  Tolerance :   1.0000e-08
  Last MAX-Density change    ...    9.9920e-16  Tolerance :   1.0000e-07
  Last RMS-Density change    ...    1.1841e-17  Tolerance :   5.0000e-09
  Last Orbital Gradient      ...    1.8945e-06  Tolerance :   1.0000e-05
  Last Orbital Rotation      ...    6.9320e-06  Tolerance :   1.0000e-05

             **** THE GBW FILE WAS UPDATED (Ibuprofeno\Ibuprofeno_B3LYP_def2-TZVP\Ibuprofeno_B3LYP_def2-TZVP.orcainp.gbw) ****
             **** DENSITY Ibuprofeno\Ibuprofeno_B3LYP_def2-TZVP\Ibuprofeno_B3LYP_def2-TZVP.orcainp.scfp WAS UPDATED ****
             **** ENERGY FILE WAS UPDATED (Ibuprofeno\Ibuprofeno_B3LYP_def2-TZVP\Ibuprofeno_B3LYP_def2-TZVP.orcainp.en.tmp) ****
             **** THE GBW FILE WAS UPDATED (Ibuprofeno\Ibuprofeno_B3LYP_def2-TZVP\Ibuprofeno_B3LYP_def2-TZVP.orcainp.gbw) ****
             **** DENSITY Ibuprofeno\Ibuprofeno_B3LYP_def2-TZVP\Ibuprofeno_B3LYP_def2-TZVP.orcainp.scfp WAS UPDATED ****
----------------
ORBITAL ENERGIES
----------------

  NO   OCC          E(Eh)            E(eV) 
   0   2.0000     -19.178075      -521.8619 
   1   2.0000     -19.120976      -520.3082 
   2   2.0000     -10.315683      -280.7040 
   3   2.0000     -10.198376      -277.5119 
   4   2.0000     -10.187387      -277.2129 
   5   2.0000     -10.180443      -277.0239 
   6   2.0000     -10.177123      -276.9336 
   7   2.0000     -10.176579      -276.9188 
   8   2.0000     -10.172496      -276.8077 
   9   2.0000     -10.172076      -276.7963 
  10   2.0000     -10.168157      -276.6896 
  11   2.0000     -10.164030      -276.5773 
  12   2.0000     -10.163112      -276.5523 
  13   2.0000     -10.148815      -276.1633 
  14   2.0000     -10.148027      -276.1419 
  15   2.0000      -1.103549       -30.0291 
  16   2.0000      -1.021334       -27.7919 
  17   2.0000      -0.865516       -23.5519 
  18   2.0000      -0.817746       -22.2520 
  19   2.0000      -0.792119       -21.5547 
  20   2.0000      -0.746885       -20.3238 
  21   2.0000      -0.740522       -20.1506 
  22   2.0000      -0.677292       -18.4301 
  23   2.0000      -0.674075       -18.3425 
  24   2.0000      -0.656595       -17.8669 
  25   2.0000      -0.619851       -16.8670 
  26   2.0000      -0.610191       -16.6041 
  27   2.0000      -0.585264       -15.9258 
  28   2.0000      -0.553690       -15.0667 
  29   2.0000      -0.528069       -14.3695 
  30   2.0000      -0.497713       -13.5435 
  31   2.0000      -0.475360       -12.9352 
  32   2.0000      -0.466237       -12.6870 
  33   2.0000      -0.455428       -12.3928 
  34   2.0000      -0.450558       -12.2603 
  35   2.0000      -0.446765       -12.1571 
  36   2.0000      -0.432085       -11.7576 
  37   2.0000      -0.427674       -11.6376 
  38   2.0000      -0.419562       -11.4169 
  39   2.0000      -0.410845       -11.1797 
  40   2.0000      -0.400705       -10.9037 
  41   2.0000      -0.386166       -10.5081 
  42   2.0000      -0.377715       -10.2781 
  43   2.0000      -0.369058       -10.0426 
  44   2.0000      -0.367659       -10.0045 
  45   2.0000      -0.361723        -9.8430 
  46   2.0000      -0.356044        -9.6885 
  47   2.0000      -0.341066        -9.2809 
  48   2.0000      -0.339577        -9.2404 
  49   2.0000      -0.328361        -8.9352 
  50   2.0000      -0.327490        -8.9114 
  51   2.0000      -0.320413        -8.7189 
  52   2.0000      -0.314315        -8.5530 
  53   2.0000      -0.292020        -7.9463 
  54   2.0000      -0.258923        -7.0457 
  55   2.0000      -0.242838        -6.6080 
  56   0.0000      -0.021519        -0.5856 
  57   0.0000      -0.015783        -0.4295 
  58   0.0000      -0.008584        -0.2336 
  59   0.0000       0.032319         0.8795 
  60   0.0000       0.047499         1.2925 
  61   0.0000       0.061840         1.6827 
  62   0.0000       0.065099         1.7714 
  63   0.0000       0.073904         2.0110 
  64   0.0000       0.079173         2.1544 
  65   0.0000       0.085500         2.3266 
  66   0.0000       0.090434         2.4608 
  67   0.0000       0.103095         2.8054 
  68   0.0000       0.105061         2.8589 
  69   0.0000       0.113572         3.0905 
  70   0.0000       0.120052         3.2668 
  71   0.0000       0.121609         3.3092 
  72   0.0000       0.131617         3.5815 
  73   0.0000       0.138895         3.7795 
  74   0.0000       0.148966         4.0536 
  75   0.0000       0.151224         4.1150 
  76   0.0000       0.153958         4.1894 
  77   0.0000       0.160467         4.3665 
  78   0.0000       0.164831         4.4853 
  79   0.0000       0.165036         4.4908 
  80   0.0000       0.169867         4.6223 
  81   0.0000       0.172779         4.7016 
  82   0.0000       0.180403         4.9090 
  83   0.0000       0.187422         5.1000 
  84   0.0000       0.199827         5.4376 
  85   0.0000       0.206342         5.6148 
  86   0.0000       0.210985         5.7412 
  87   0.0000       0.214228         5.8294 
  88   0.0000       0.222540         6.0556 
  89   0.0000       0.227491         6.1903 
  90   0.0000       0.233002         6.3403 
  91   0.0000       0.243786         6.6338 
  92   0.0000       0.251594         6.8462 
  93   0.0000       0.259821         7.0701 
  94   0.0000       0.263038         7.1576 
  95   0.0000       0.269142         7.3237 
  96   0.0000       0.272512         7.4154 
  97   0.0000       0.283533         7.7153 
  98   0.0000       0.285861         7.7787 
  99   0.0000       0.287565         7.8251 
 100   0.0000       0.294012         8.0005 
 101   0.0000       0.298510         8.1229 
 102   0.0000       0.311856         8.4860 
 103   0.0000       0.312412         8.5012 
 104   0.0000       0.321897         8.7593 
 105   0.0000       0.330318         8.9884 
 106   0.0000       0.334654         9.1064 
 107   0.0000       0.337867         9.1938 
 108   0.0000       0.343536         9.3481 
 109   0.0000       0.352118         9.5816 
 110   0.0000       0.360262         9.8032 
 111   0.0000       0.368565        10.0292 
 112   0.0000       0.373892        10.1741 
 113   0.0000       0.385569        10.4919 
 114   0.0000       0.392178        10.6717 
 115   0.0000       0.395604        10.7649 
 116   0.0000       0.396694        10.7946 
 117   0.0000       0.404342        11.0027 
 118   0.0000       0.409380        11.1398 
 119   0.0000       0.413696        11.2572 
 120   0.0000       0.422139        11.4870 
 121   0.0000       0.427047        11.6205 
 122   0.0000       0.429767        11.6946 
 123   0.0000       0.432767        11.7762 
 124   0.0000       0.437698        11.9104 
 125   0.0000       0.438376        11.9288 
 126   0.0000       0.445452        12.1214 
 127   0.0000       0.452063        12.3013 
 128   0.0000       0.457315        12.4442 
 129   0.0000       0.461985        12.5713 
 130   0.0000       0.469203        12.7677 
 131   0.0000       0.470593        12.8055 
 132   0.0000       0.472992        12.8708 
 133   0.0000       0.477276        12.9873 
 134   0.0000       0.478342        13.0164 
 135   0.0000       0.485450        13.2098 
 136   0.0000       0.487369        13.2620 
 137   0.0000       0.493180        13.4201 
 138   0.0000       0.501521        13.6471 
 139   0.0000       0.503699        13.7063 
 140   0.0000       0.508416        13.8347 
 141   0.0000       0.519137        14.1264 
 142   0.0000       0.522153        14.2085 
 143   0.0000       0.537003        14.6126 
 144   0.0000       0.545223        14.8363 
 145   0.0000       0.557142        15.1606 
 146   0.0000       0.562433        15.3046 
 147   0.0000       0.570687        15.5292 
 148   0.0000       0.585244        15.9253 
 149   0.0000       0.594964        16.1898 
 150   0.0000       0.600968        16.3532 
 151   0.0000       0.612283        16.6611 
 152   0.0000       0.615951        16.7609 
 153   0.0000       0.621538        16.9129 
 154   0.0000       0.629493        17.1294 
 155   0.0000       0.643531        17.5114 
 156   0.0000       0.647932        17.6311 
 157   0.0000       0.655729        17.8433 
 158   0.0000       0.667535        18.1646 
 159   0.0000       0.683381        18.5958 
 160   0.0000       0.686898        18.6914 
 161   0.0000       0.691220        18.8091 
 162   0.0000       0.705042        19.1852 
 163   0.0000       0.716601        19.4997 
 164   0.0000       0.725862        19.7517 
 165   0.0000       0.740853        20.1596 
 166   0.0000       0.748747        20.3744 
 167   0.0000       0.751496        20.4492 
 168   0.0000       0.757362        20.6089 
 169   0.0000       0.769377        20.9358 
 170   0.0000       0.783298        21.3146 
 171   0.0000       0.798759        21.7353 
 172   0.0000       0.808284        21.9945 
 173   0.0000       0.811869        22.0921 
 174   0.0000       0.831693        22.6315 
 175   0.0000       0.838013        22.8035 
 176   0.0000       0.841743        22.9050 
 177   0.0000       0.851608        23.1734 
 178   0.0000       0.858220        23.3534 
 179   0.0000       0.870575        23.6895 
 180   0.0000       0.871603        23.7175 
 181   0.0000       0.884701        24.0739 
 182   0.0000       0.891926        24.2705 
 183   0.0000       0.902553        24.5597 
 184   0.0000       0.919851        25.0304 
 185   0.0000       0.923931        25.1415 
 186   0.0000       0.928470        25.2650 
 187   0.0000       0.940785        25.6001 
 188   0.0000       0.953223        25.9385 
 189   0.0000       0.956503        26.0278 
 190   0.0000       0.979338        26.6491 
 191   0.0000       0.983994        26.7758 
 192   0.0000       0.996816        27.1247 
 193   0.0000       1.017511        27.6879 
 194   0.0000       1.025913        27.9165 
 195   0.0000       1.027061        27.9477 
 196   0.0000       1.039658        28.2905 
 197   0.0000       1.049421        28.5562 
 198   0.0000       1.063627        28.9428 
 199   0.0000       1.069710        29.1083 
 200   0.0000       1.078332        29.3429 
 201   0.0000       1.090494        29.6738 
 202   0.0000       1.092449        29.7270 
 203   0.0000       1.103124        30.0175 
 204   0.0000       1.116386        30.3784 
 205   0.0000       1.127944        30.6929 
 206   0.0000       1.140037        31.0220 
 207   0.0000       1.157324        31.4924 
 208   0.0000       1.165558        31.7165 
 209   0.0000       1.177916        32.0527 
 210   0.0000       1.189732        32.3743 
 211   0.0000       1.199339        32.6357 
 212   0.0000       1.213758        33.0280 
 213   0.0000       1.233378        33.5619 
 214   0.0000       1.239633        33.7321 
 215   0.0000       1.250204        34.0198 
 216   0.0000       1.254957        34.1491 
 217   0.0000       1.270900        34.5829 
 218   0.0000       1.278484        34.7893 
 219   0.0000       1.293663        35.2023 
 220   0.0000       1.295429        35.2504 
 221   0.0000       1.309812        35.6418 
 222   0.0000       1.328196        36.1421 
 223   0.0000       1.332448        36.2578 
 224   0.0000       1.343924        36.5700 
 225   0.0000       1.358944        36.9787 
 226   0.0000       1.369858        37.2757 
 227   0.0000       1.377140        37.4739 
 228   0.0000       1.400583        38.1118 
 229   0.0000       1.414617        38.4937 
 230   0.0000       1.422302        38.7028 
 231   0.0000       1.445472        39.3333 
 232   0.0000       1.451258        39.4907 
 233   0.0000       1.457555        39.6621 
 234   0.0000       1.476175        40.1688 
 235   0.0000       1.486587        40.4521 
 236   0.0000       1.492296        40.6074 
 237   0.0000       1.497148        40.7395 
 238   0.0000       1.526335        41.5337 
 239   0.0000       1.528714        41.5984 
 240   0.0000       1.549376        42.1607 
 241   0.0000       1.554155        42.2907 
 242   0.0000       1.560751        42.4702 
 243   0.0000       1.564965        42.5849 
 244   0.0000       1.566554        42.6281 
 245   0.0000       1.573078        42.8056 
 246   0.0000       1.586499        43.1708 
 247   0.0000       1.592657        43.3384 
 248   0.0000       1.601542        43.5802 
 249   0.0000       1.606395        43.7122 
 250   0.0000       1.611971        43.8639 
 251   0.0000       1.612844        43.8877 
 252   0.0000       1.627348        44.2824 
 253   0.0000       1.631689        44.4005 
 254   0.0000       1.633961        44.4623 
 255   0.0000       1.648816        44.8666 
 256   0.0000       1.653663        44.9985 
 257   0.0000       1.662353        45.2349 
 258   0.0000       1.665127        45.3104 
 259   0.0000       1.676443        45.6183 
 260   0.0000       1.680700        45.7342 
 261   0.0000       1.686940        45.9040 
 262   0.0000       1.709278        46.5118 
 263   0.0000       1.728602        47.0376 
 264   0.0000       1.737272        47.2736 
 265   0.0000       1.741094        47.3776 
 266   0.0000       1.754798        47.7505 
 267   0.0000       1.772383        48.2290 
 268   0.0000       1.776166        48.3319 
 269   0.0000       1.786046        48.6008 
 270   0.0000       1.794554        48.8323 
 271   0.0000       1.798355        48.9357 
 272   0.0000       1.815256        49.3956 
 273   0.0000       1.834005        49.9058 
 274   0.0000       1.844041        50.1789 
 275   0.0000       1.865837        50.7720 
 276   0.0000       1.878633        51.1202 
 277   0.0000       1.882398        51.2227 
 278   0.0000       1.894540        51.5531 
 279   0.0000       1.907640        51.9095 
 280   0.0000       1.919645        52.2362 
 281   0.0000       1.938954        52.7616 
 282   0.0000       1.944198        52.9043 
 283   0.0000       1.955410        53.2094 
 284   0.0000       1.967532        53.5393 
 285   0.0000       1.988801        54.1180 
 286   0.0000       1.993230        54.2385 
 287   0.0000       2.006404        54.5970 
 288   0.0000       2.017794        54.9070 
 289   0.0000       2.037831        55.4522 
 290   0.0000       2.054063        55.8939 
 291   0.0000       2.075283        56.4713 
 292   0.0000       2.086552        56.7780 
 293   0.0000       2.100357        57.1536 
 294   0.0000       2.110314        57.4246 
 295   0.0000       2.113700        57.5167 
 296   0.0000       2.124077        57.7991 
 297   0.0000       2.138578        58.1937 
 298   0.0000       2.145892        58.3927 
 299   0.0000       2.154505        58.6271 
 300   0.0000       2.164421        58.8969 
 301   0.0000       2.176238        59.2184 
 302   0.0000       2.180752        59.3413 
 303   0.0000       2.190932        59.6183 
 304   0.0000       2.198297        59.8187 
 305   0.0000       2.204867        59.9975 
 306   0.0000       2.217723        60.3473 
 307   0.0000       2.226522        60.5867 
 308   0.0000       2.249416        61.2097 
 309   0.0000       2.259087        61.4729 
 310   0.0000       2.273855        61.8747 
 311   0.0000       2.288303        62.2679 
 312   0.0000       2.311788        62.9070 
 313   0.0000       2.316269        63.0289 
 314   0.0000       2.320582        63.1462 
 315   0.0000       2.330218        63.4084 
 316   0.0000       2.341712        63.7212 
 317   0.0000       2.350745        63.9670 
 318   0.0000       2.365287        64.3627 
 319   0.0000       2.370743        64.5112 
 320   0.0000       2.383606        64.8612 
 321   0.0000       2.392321        65.0984 
 322   0.0000       2.406667        65.4888 
 323   0.0000       2.410787        65.6009 
 324   0.0000       2.414629        65.7054 
 325   0.0000       2.425214        65.9934 
 326   0.0000       2.435335        66.2688 
 327   0.0000       2.447519        66.6004 
 328   0.0000       2.450339        66.6771 
 329   0.0000       2.481757        67.5320 
 330   0.0000       2.483030        67.5667 
 331   0.0000       2.509308        68.2817 
 332   0.0000       2.516415        68.4751 
 333   0.0000       2.529504        68.8313 
 334   0.0000       2.540561        69.1322 
 335   0.0000       2.544776        69.2469 
 336   0.0000       2.564225        69.7761 
 337   0.0000       2.577834        70.1464 
 338   0.0000       2.584457        70.3266 
 339   0.0000       2.593593        70.5752 
 340   0.0000       2.597957        70.6940 
 341   0.0000       2.604984        70.8852 
 342   0.0000       2.611659        71.0668 
 343   0.0000       2.619960        71.2927 
 344   0.0000       2.620738        71.3139 
 345   0.0000       2.626471        71.4699 
 346   0.0000       2.633998        71.6747 
 347   0.0000       2.651331        72.1464 
 348   0.0000       2.657114        72.3037 
 349   0.0000       2.660448        72.3945 
 350   0.0000       2.677007        72.8451 
 351   0.0000       2.695477        73.3477 
 352   0.0000       2.697405        73.4001 
 353   0.0000       2.713283        73.8322 
 354   0.0000       2.718690        73.9793 
 355   0.0000       2.722887        74.0935 
 356   0.0000       2.732970        74.3679 
 357   0.0000       2.744823        74.6904 
 358   0.0000       2.750752        74.8518 
 359   0.0000       2.766348        75.2762 
 360   0.0000       2.777522        75.5802 
 361   0.0000       2.782889        75.7263 
 362   0.0000       2.785575        75.7993 
 363   0.0000       2.804245        76.3074 
 364   0.0000       2.809053        76.4382 
 365   0.0000       2.818992        76.7087 
 366   0.0000       2.833516        77.1039 
 367   0.0000       2.839872        77.2768 
 368   0.0000       2.844941        77.4148 
 369   0.0000       2.853984        77.6608 
 370   0.0000       2.865628        77.9777 
 371   0.0000       2.874608        78.2221 
 372   0.0000       2.889115        78.6168 
 373   0.0000       2.893898        78.7470 
 374   0.0000       2.897502        78.8450 
 375   0.0000       2.910295        79.1932 
 376   0.0000       2.938100        79.9498 
 377   0.0000       2.947646        80.2095 
 378   0.0000       2.965943        80.7074 
 379   0.0000       2.974025        80.9273 
 380   0.0000       2.996800        81.5471 
 381   0.0000       3.001203        81.6669 
 382   0.0000       3.008052        81.8533 
 383   0.0000       3.021653        82.2234 
 384   0.0000       3.035143        82.5904 
 385   0.0000       3.043340        82.8135 
 386   0.0000       3.051517        83.0360 
 387   0.0000       3.057022        83.1858 
 388   0.0000       3.081859        83.8616 
 389   0.0000       3.086646        83.9919 
 390   0.0000       3.096692        84.2653 
 391   0.0000       3.098513        84.3148 
 392   0.0000       3.107554        84.5608 
 393   0.0000       3.125340        85.0448 
 394   0.0000       3.136872        85.3586 
 395   0.0000       3.145747        85.6001 
 396   0.0000       3.150525        85.7301 
 397   0.0000       3.157759        85.9270 
 398   0.0000       3.164590        86.1129 
 399   0.0000       3.168437        86.2176 
 400   0.0000       3.175216        86.4020 
 401   0.0000       3.188171        86.7545 
 402   0.0000       3.191944        86.8572 
 403   0.0000       3.201807        87.1256 
 404   0.0000       3.213396        87.4410 
 405   0.0000       3.226263        87.7911 
 406   0.0000       3.237808        88.1052 
 407   0.0000       3.250555        88.4521 
 408   0.0000       3.254960        88.5720 
 409   0.0000       3.267326        88.9085 
 410   0.0000       3.288622        89.4879 
 411   0.0000       3.293569        89.6226 
 412   0.0000       3.303097        89.8818 
 413   0.0000       3.311183        90.1019 
 414   0.0000       3.320717        90.3613 
 415   0.0000       3.324274        90.4581 
 416   0.0000       3.333792        90.7171 
 417   0.0000       3.341495        90.9267 
 418   0.0000       3.342163        90.9449 
 419   0.0000       3.354905        91.2916 
 420   0.0000       3.360148        91.4343 
 421   0.0000       3.371627        91.7466 
 422   0.0000       3.378122        91.9234 
 423   0.0000       3.386305        92.1460 
 424   0.0000       3.401468        92.5587 
 425   0.0000       3.403845        92.6233 
 426   0.0000       3.412223        92.8513 
 427   0.0000       3.416014        92.9545 
 428   0.0000       3.424054        93.1733 
 429   0.0000       3.431677        93.3807 
 430   0.0000       3.443441        93.7008 
 431   0.0000       3.453537        93.9755 
 432   0.0000       3.459809        94.1462 
 433   0.0000       3.465638        94.3048 
 434   0.0000       3.477699        94.6330 
 435   0.0000       3.483048        94.7786 
 436   0.0000       3.498635        95.2027 
 437   0.0000       3.506458        95.4156 
 438   0.0000       3.521032        95.8121 
 439   0.0000       3.536585        96.2354 
 440   0.0000       3.543851        96.4331 
 441   0.0000       3.547618        96.5356 
 442   0.0000       3.561625        96.9168 
 443   0.0000       3.572646        97.2166 
 444   0.0000       3.588034        97.6354 
 445   0.0000       3.592504        97.7570 
 446   0.0000       3.609371        98.2160 
 447   0.0000       3.618381        98.4612 
 448   0.0000       3.625569        98.6568 
 449   0.0000       3.633740        98.8791 
 450   0.0000       3.653654        99.4210 
 451   0.0000       3.659243        99.5731 
 452   0.0000       3.664887        99.7266 
 453   0.0000       3.679800       100.1324 
 454   0.0000       3.687331       100.3374 
 455   0.0000       3.691920       100.4623 
 456   0.0000       3.701942       100.7350 
 457   0.0000       3.726264       101.3968 
 458   0.0000       3.747744       101.9813 
 459   0.0000       3.781199       102.8917 
 460   0.0000       3.785299       103.0032 
 461   0.0000       3.805241       103.5459 
 462   0.0000       3.831484       104.2600 
 463   0.0000       3.836636       104.4002 
 464   0.0000       3.882813       105.6567 
 465   0.0000       3.890336       105.8614 
 466   0.0000       3.915326       106.5414 
 467   0.0000       3.922384       106.7335 
 468   0.0000       3.942741       107.2874 
 469   0.0000       3.962748       107.8318 
 470   0.0000       3.981150       108.3326 
 471   0.0000       4.004109       108.9573 
 472   0.0000       4.020175       109.3945 
[...]
LOEWDIN ATOMIC CHARGES
----------------------
   0 C :   -0.285811
   1 C :   -0.296582
   2 C :   -0.287124
   3 C :   -0.190843
   4 C :   -0.140023
   5 C :   -0.110393
   6 C :   -0.113585
   7 C :   -0.136573
   8 C :   -0.107689
   9 C :   -0.114302
  10 C :   -0.210059
  11 C :   -0.260487
  12 C :   -0.468318
  13 O :    0.103315
  14 O :    0.067286
  15 H :    0.120312
  16 H :    0.120518
  17 H :    0.120040
  18 H :    0.148504
  19 H :    0.120283
  20 H :    0.120050
  21 H :    0.119433
  22 H :    0.145774
  23 H :    0.148479
  24 H :    0.152720
  25 H :    0.153550
  26 H :    0.155201
  27 H :    0.151719
  28 H :    0.180871
  29 H :    0.125950
  30 H :    0.127839
  31 H :    0.125595
  32 H :    0.214351

-------------------------------
LOEWDIN REDUCED ORBITAL CHARGES
-------------------------------
  0 C s       :     2.830895  s :     2.830895
      pz      :     1.044655  p :     3.166680
      px      :     1.064526
      py      :     1.057498
      dz2     :     0.081572  d :     0.263138
      dxz     :     0.034459
      dyz     :     0.044122
      dx2y2   :     0.060330
      dxy     :     0.042656
      f0      :     0.003047  f :     0.025099
      f+1     :     0.004125
      f-1     :     0.004730
      f+2     :     0.003165
      f-2     :     0.004506
      f+3     :     0.004029
      f-3     :     0.001495
  1 C s       :     2.740741  s :     2.740741
      pz      :     0.988302  p :     2.980314
      px      :     0.996553
      py      :     0.995459
      dz2     :     0.123462  d :     0.522661
      dxz     :     0.104365
      dyz     :     0.098286
      dx2y2   :     0.095399
      dxy     :     0.101149
      f0      :     0.010107  f :     0.052867
      f+1     :     0.007226
      f-1     :     0.007238
      f+2     :     0.008740
      f-2     :     0.006860
      f+3     :     0.006922
      f-3     :     0.005775
  2 C s       :     2.832688  s :     2.832688
      pz      :     1.067049  p :     3.165428
      px      :     1.031728
      py      :     1.066652
      dz2     :     0.033652  d :     0.263926
      dxz     :     0.066049
      dyz     :     0.043553
      dx2y2   :     0.044231
      dxy     :     0.076440
      f0      :     0.002849  f :     0.025082
      f+1     :     0.003831
      f-1     :     0.002245
      f+2     :     0.004321
      f-2     :     0.002077
      f+3     :     0.005133
      f-3     :     0.004625
  3 C s       :     2.767541  s :     2.767541
      pz      :     1.005457  p :     3.008377
      px      :     0.981539
      py      :     1.021380
      dz2     :     0.070127  d :     0.377511
      dxz     :     0.088237
      dyz     :     0.074949
      dx2y2   :     0.070719
      dxy     :     0.073479
      f0      :     0.006267  f :     0.037414
      f+1     :     0.005736
      f-1     :     0.004535
      f+2     :     0.005818
      f-2     :     0.004524
      f+3     :     0.005430
      f-3     :     0.005104
  4 C s       :     2.713141  s :     2.713141
      pz      :     0.819783  p :     2.853662
      px      :     0.983554
      py      :     1.050325
      dz2     :     0.034826  d :     0.516095
      dxz     :     0.070572
      dyz     :     0.074488
      dx2y2   :     0.174685
      dxy     :     0.161525
      f0      :     0.003885  f :     0.057126
      f+1     :     0.004152
      f-1     :     0.004351
      f+2     :     0.005572
      f-2     :     0.007565
      f+3     :     0.009796
      f-3     :     0.021804
  5 C s       :     2.758432  s :     2.758432
      pz      :     0.889770  p :     2.928679
      px      :     1.041470
      py      :     0.997439
      dz2     :     0.026068  d :     0.380812
      dxz     :     0.064170
      dyz     :     0.023193
      dx2y2   :     0.129590
      dxy     :     0.137791
      f0      :     0.002900  f :     0.042471
      f+1     :     0.004229
      f-1     :     0.003287
      f+2     :     0.005014
      f-2     :     0.003700
      f+3     :     0.008655
      f-3     :     0.014686
  6 C s       :     2.759164  s :     2.759164
      pz      :     0.887809  p :     2.925698
      px      :     1.037856
      py      :     1.000033
      dz2     :     0.026886  d :     0.385926
      dxz     :     0.059755
      dyz     :     0.032595
      dx2y2   :     0.110985
      dxy     :     0.155705
      f0      :     0.002916  f :     0.042796
      f+1     :     0.003971
      f-1     :     0.003592
      f+2     :     0.006813
      f-2     :     0.002396
      f+3     :     0.008481
      f-3     :     0.014626
  7 C s       :     2.708354  s :     2.708354
      pz      :     0.854091  p :     2.859761
      px      :     0.950855
      py      :     1.054816
      dz2     :     0.035967  d :     0.511854
      dxz     :     0.063996
      dyz     :     0.078498
      dx2y2   :     0.176591
      dxy     :     0.156801
      f0      :     0.003781  f :     0.056604
      f+1     :     0.004309
      f-1     :     0.004322
      f+2     :     0.005268
      f-2     :     0.007688
      f+3     :     0.009677
      f-3     :     0.021559
  8 C s       :     2.756966  s :     2.756966
      pz      :     0.886632  p :     2.924555
      px      :     1.041584
      py      :     0.996339
      dz2     :     0.026079  d :     0.383370
      dxz     :     0.067153
      dyz     :     0.024915
      dx2y2   :     0.126404
      dxy     :     0.138818
      f0      :     0.002971  f :     0.042798
      f+1     :     0.004238
      f-1     :     0.003290
      f+2     :     0.005144
      f-2     :     0.004022
      f+3     :     0.008616
      f-3     :     0.014517
  9 C s       :     2.759752  s :     2.759752
      pz      :     0.891530  p :     2.929309
      px      :     1.035313
      py      :     1.002465
      dz2     :     0.026983  d :     0.382760
      dxz     :     0.057227
      dyz     :     0.030477
      dx2y2   :     0.112566
      dxy     :     0.155507
      f0      :     0.002895  f :     0.042481
      f+1     :     0.003994
      f-1     :     0.003547
      f+2     :     0.006561
      f-2     :     0.002258
      f+3     :     0.008482
      f-3     :     0.014743
 10 C s       :     2.730135  s :     2.730135
      pz      :     0.998348  p :     2.952877
      px      :     0.969994
      py      :     0.984534
      dz2     :     0.103342  d :     0.477250
      dxz     :     0.112956
      dyz     :     0.100512
      dx2y2   :     0.082072
      dxy     :     0.078369
      f0      :     0.008748  f :     0.049797
      f+1     :     0.007333
      f-1     :     0.007326
      f+2     :     0.007371
      f-2     :     0.006908
      f+3     :     0.006244
      f-3     :     0.005867
 11 C s       :     2.828975  s :     2.828975
      pz      :     1.014663  p :     3.152515
      px      :     1.064023
      py      :     1.073828
      dz2     :     0.061610  d :     0.254012
      dxz     :     0.045144
      dyz     :     0.074418
      dx2y2   :     0.055079
      dxy     :     0.017762
      f0      :     0.005129  f :     0.024985
      f+1     :     0.005597
      f-1     :     0.004213
      f+2     :     0.002306
      f-2     :     0.004115
      f+3     :     0.003125
      f-3     :     0.000500
 12 C s       :     2.769941  s :     2.769941
      pz      :     0.898568  p :     2.624047
      px      :     0.797693
      py      :     0.927786
      dz2     :     0.225904  d :     0.922061
      dxz     :     0.174540
      dyz     :     0.248660
      dx2y2   :     0.145235
      dxy     :     0.127722
      f0      :     0.036741  f :     0.152268
      f+1     :     0.022539
      f-1     :     0.029458
      f+2     :     0.010847
      f-2     :     0.020856
      f+3     :     0.014268
      f-3     :     0.017559
 13 O s       :     3.329705  s :     3.329705
      pz      :     1.479471  p :     4.493596
      px      :     1.552200
      py      :     1.461925
      dz2     :     0.030411  d :     0.068585
      dxz     :     0.010727
      dyz     :     0.012347
      dx2y2   :     0.002972
      dxy     :     0.012128
      f0      :     0.001334  f :     0.004799
      f+1     :     0.000941
      f-1     :     0.001340
      f+2     :     0.000197
      f-2     :     0.000254
      f+3     :     0.000681
      f-3     :     0.000052
 14 O s       :     3.397717  s :     3.397717
      pz      :     1.624272  p :     4.463959
      px      :     1.384481
      py      :     1.455206
      dz2     :     0.009687  d :     0.064889
      dxz     :     0.006762
      dyz     :     0.013537
      dx2y2   :     0.013778
      dxy     :     0.021124
      f0      :     0.000704  f :     0.006149
      f+1     :     0.000449
      f-1     :     0.000942
      f+2     :     0.000381
      f-2     :     0.001199
      f+3     :     0.001474
      f-3     :     0.001001
 15 H s       :     0.819009  s :     0.819009
      pz      :     0.029173  p :     0.060679
      px      :     0.015977
      py      :     0.015530
 16 H s       :     0.818971  s :     0.818971
      pz      :     0.013712  p :     0.060511
      px      :     0.017444
      py      :     0.029355
 17 H s       :     0.818458  s :     0.818458
      pz      :     0.013303  p :     0.061502
      px      :     0.034530
      py      :     0.013669
 18 H s       :     0.794707  s :     0.794707
      pz      :     0.013616  p :     0.056789
      px      :     0.016414
      py      :     0.026759
 19 H s       :     0.819157  s :     0.819157
      pz      :     0.014580  p :     0.060560
      px      :     0.017649
      py      :     0.028331
 20 H s       :     0.819252  s :     0.819252
      pz      :     0.029810  p :     0.060698
      px      :     0.015450
      py      :     0.015439
 21 H s       :     0.819916  s :     0.819916
      pz      :     0.023759  p :     0.060651
      px      :     0.013418
      py      :     0.023474
 22 H s       :     0.796099  s :     0.796099
      pz      :     0.013878  p :     0.058127
      px      :     0.014976
      py      :     0.029272
 23 H s       :     0.792979  s :     0.792979
      pz      :     0.022567  p :     0.058542
      px      :     0.013903
      py      :     0.022071
 24 H s       :     0.788157  s :     0.788157
      pz      :     0.013699  p :     0.059123
      px      :     0.014941
      py      :     0.030483
 25 H s       :     0.787295  s :     0.787295
      pz      :     0.013528  p :     0.059155
      px      :     0.018122
      py      :     0.027505
 26 H s       :     0.785393  s :     0.785393
      pz      :     0.013741  p :     0.059405
      px      :     0.014884
      py      :     0.030780
 27 H s       :     0.789180  s :     0.789180
      pz      :     0.013622  p :     0.059101
      px      :     0.018095
      py      :     0.027383
 28 H s       :     0.761403  s :     0.761403
      pz      :     0.013546  p :     0.057726
      px      :     0.014772
      py      :     0.029408
 29 H s       :     0.812580  s :     0.812580
      pz      :     0.014128  p :     0.061470
      px      :     0.015839
      py      :     0.031504
 30 H s       :     0.811002  s :     0.811002
      pz      :     0.020973  p :     0.061159
      px      :     0.016037
      py      :     0.024149
 31 H s       :     0.813034  s :     0.813034
      pz      :     0.012382  p :     0.061371
      px      :     0.035654
      py      :     0.013335
 32 H s       :     0.636042  s :     0.636042
      pz      :     0.026690  p :     0.149607
      px      :     0.052954
      py      :     0.069963


                      *****************************
                      * MAYER POPULATION ANALYSIS *
                      *****************************

  NA   - Mulliken gross atomic population
  ZA   - Total nuclear charge
  QA   - Mulliken gross atomic charge
  VA   - Mayer's total valence
  BVA  - Mayer's bonded valence
  FA   - Mayer's free valence

  ATOM       NA         ZA         QA         VA         BVA        FA
  0 C      6.3837     6.0000    -0.3837     3.8738     3.8738    -0.0000
  1 C      5.9930     6.0000     0.0070     3.8021     3.8021    -0.0000
  2 C      6.3674     6.0000    -0.3674     3.8533     3.8533    -0.0000
  3 C      6.2066     6.0000    -0.2066     3.7794     3.7794     0.0000
  4 C      5.8342     6.0000     0.1658     3.6186     3.6186    -0.0000
  5 C      6.2157     6.0000    -0.2157     3.8805     3.8805    -0.0000
  6 C      6.1926     6.0000    -0.1926     3.9024     3.9024    -0.0000
  7 C      5.9544     6.0000     0.0456     3.6940     3.6940    -0.0000
  8 C      6.1819     6.0000    -0.1819     3.8629     3.8629    -0.0000
  9 C      6.2203     6.0000    -0.2203     3.9077     3.9077    -0.0000
 10 C      6.0329     6.0000    -0.0329     3.6456     3.6456     0.0000
 11 C      6.3836     6.0000    -0.3836     3.8984     3.8984    -0.0000
 12 C      5.7035     6.0000     0.2965     4.3435     4.3435    -0.0000
 13 O      8.3742     8.0000    -0.3742     2.0861     2.0861     0.0000
 14 O      8.3679     8.0000    -0.3679     2.1247     2.1247     0.0000
 15 H      0.8817     1.0000     0.1183     0.9690     0.9690    -0.0000
 16 H      0.8936     1.0000     0.1064     0.9759     0.9759     0.0000
 17 H      0.8777     1.0000     0.1223     0.9681     0.9681     0.0000
 18 H      0.9262     1.0000     0.0738     0.9646     0.9646    -0.0000
 19 H      0.8913     1.0000     0.1087     0.9752     0.9752     0.0000
 20 H      0.8825     1.0000     0.1175     0.9698     0.9698     0.0000
 21 H      0.8835     1.0000     0.1165     0.9705     0.9705    -0.0000
 22 H      0.8874     1.0000     0.1126     0.9780     0.9780    -0.0000
 23 H      0.8903     1.0000     0.1097     0.9680     0.9680    -0.0000
 24 H      0.8641     1.0000     0.1359     0.9720     0.9720    -0.0000
 25 H      0.8660     1.0000     0.1340     0.9734     0.9734    -0.0000
 26 H      0.8607     1.0000     0.1393     0.9772     0.9772     0.0000
 27 H      0.8683     1.0000     0.1317     0.9744     0.9744    -0.0000
 28 H      0.8659     1.0000     0.1341     0.9677     0.9677     0.0000
 29 H      0.8751     1.0000     0.1249     0.9765     0.9765    -0.0000
 30 H      0.8704     1.0000     0.1296     0.9687     0.9687    -0.0000
 31 H      0.8728     1.0000     0.1272     0.9725     0.9725    -0.0000
 32 H      0.6306     1.0000     0.3694     0.8808     0.8808     0.0000

  Mayer bond orders larger than 0.100000
B(  0-C ,  1-C ) :   0.9671 B(  0-C , 15-H ) :   0.9777 B(  0-C , 16-H ) :   0.9693 
B(  0-C , 17-H ) :   0.9741 B(  1-C ,  2-C ) :   0.9454 B(  1-C ,  3-C ) :   0.9526 
B(  1-C , 18-H ) :   0.9625 B(  2-C , 19-H ) :   0.9714 B(  2-C , 20-H ) :   0.9779 
B(  2-C , 21-H ) :   0.9771 B(  3-C ,  4-C ) :   0.9040 B(  3-C , 22-H ) :   0.9788 
B(  3-C , 23-H ) :   0.9568 B(  4-C ,  5-C ) :   1.3251 B(  4-C ,  9-C ) :   1.3387 
B(  5-C ,  6-C ) :   1.4194 B(  5-C , 24-H ) :   0.9841 B(  6-C ,  7-C ) :   1.3409 
B(  6-C , 25-H ) :   0.9800 B(  7-C ,  8-C ) :   1.3378 B(  7-C , 10-C ) :   0.8969 
B(  8-C ,  9-C ) :   1.4167 B(  8-C , 26-H ) :   0.9760 B(  9-C , 27-H ) :   0.9820 
B( 10-C , 11-C ) :   0.9457 B( 10-C , 12-C ) :   0.9734 B( 10-C , 28-H ) :   0.9426 
B( 11-C , 29-H ) :   0.9700 B( 11-C , 30-H ) :   0.9696 B( 11-C , 31-H ) :   0.9706 
B( 12-C , 13-O ) :   1.2208 B( 12-C , 14-O ) :   2.0702 B( 13-O , 32-H ) :   0.8415 


-------
TIMINGS
-------

Total SCF time: 0 days 0 hours 3 min 12 sec 

Total time                  ....     192.281 sec
Sum of individual times     ....     191.741 sec  ( 99.7%)

Fock matrix formation       ....     188.429 sec  ( 98.0%)
  Split-RI-J                ....       9.347 sec  (  5.0% of F)
  Chain of spheres X        ....     155.289 sec  ( 82.4% of F)
  XC integration            ....      11.031 sec  (  5.9% of F)
    Basis function eval.    ....       3.145 sec  ( 28.5% of XC)
    Density eval.           ....       4.443 sec  ( 40.3% of XC)
    XC-Functional eval.     ....       0.238 sec  (  2.2% of XC)
    XC-Potential eval.      ....       2.648 sec  ( 24.0% of XC)
Diagonalization             ....       0.035 sec  (  0.0%)
Density matrix formation    ....       0.021 sec  (  0.0%)
Population analysis         ....       0.051 sec  (  0.0%)
Initial guess               ....       0.038 sec  (  0.0%)
Orbital Transformation      ....       0.000 sec  (  0.0%)
Orbital Orthonormalization  ....       0.029 sec  (  0.0%)
DIIS solution               ....       0.013 sec  (  0.0%)
SOSCF solution              ....       0.169 sec  (  0.1%)
Grid generation             ....       2.985 sec  (  1.6%)

Maximum memory used throughout the entire SCF-calculation: 355.0 MB

-------------------------   --------------------
FINAL SINGLE POINT ENERGY      -656.561636121633
-------------------------   --------------------

                                *** OPTIMIZATION RUN DONE ***

                            ***************************************
                            *     ORCA property calculations      *
                            ***************************************

                                    ---------------------
                                    Active property flags
                                    ---------------------
   (+) Dipole Moment


------------------------------------------------------------------------------
                       ORCA ELECTRIC PROPERTIES CALCULATION
------------------------------------------------------------------------------

Dipole Moment Calculation                       ... on
Quadrupole Moment Calculation                   ... off
Polarizability Calculation                      ... off
GBWName                                         ... Ibuprofeno\Ibuprofeno_B3LYP_def2-TZVP\Ibuprofeno_B3LYP_def2-TZVP.orcainp.gbw
Electron density                                ... Ibuprofeno\Ibuprofeno_B3LYP_def2-TZVP\Ibuprofeno_B3LYP_def2-TZVP.orcainp.scfp
The origin for moment calculation is the CENTER OF MASS  = (11.492900, -0.116745 -1.645957)

-------------
DIPOLE MOMENT
-------------
                                X             Y             Z
Electronic contribution:     19.18125       4.04845      -0.93859
Nuclear contribution   :    -20.70416      -6.03056       0.75634
                        -----------------------------------------
Total Dipole Moment    :     -1.52291      -1.98211      -0.18224
                        -----------------------------------------
Magnitude (a.u.)       :      2.50624
Magnitude (Debye)      :      6.37035



--------------------
Rotational spectrum 
--------------------
 
Rotational constants in cm-1:     0.048021     0.008441     0.007976 
Rotational constants in MHz :  1439.646429   253.059403   239.120050 

 Dipole components along the rotational axes: 
x,y,z [a.u.] :     1.860902    -1.061719     1.300390 
x,y,z [Debye]:     4.730038    -2.698676     3.305329 

 

Timings for individual modules:

Sum of individual times         ...     8350.146 sec (= 139.169 min)
GTO integral calculation        ...       11.188 sec (=   0.186 min)   0.1 %
SCF iterations                  ...     6471.619 sec (= 107.860 min)  77.5 %
SCF Gradient evaluation         ...     1865.512 sec (=  31.092 min)  22.3 %
Geometry relaxation             ...        1.827 sec (=   0.030 min)   0.0 %
                             ****ORCA TERMINATED NORMALLY****
TOTAL RUN TIME: 0 days 2 hours 19 minutes 12 seconds 629 msec
