
                                 *****************
                                 * O   R   C   A *
                                 *****************

                                            #,                                       
                                            ###                                      
                                            ####                                     
                                            #####                                    
                                            ######                                   
                                           ########,                                 
                                     ,,################,,,,,                         
                               ,,#################################,,                 
                          ,,##########################################,,             
                       ,#########################################, ''#####,          
                    ,#############################################,,   '####,        
                  ,##################################################,,,,####,       
                ,###########''''           ''''###############################       
              ,#####''   ,,,,##########,,,,          '''####'''          '####       
            ,##' ,,,,###########################,,,                        '##       
           ' ,,###''''                  '''############,,,                           
         ,,##''                                '''############,,,,        ,,,,,,###''
      ,#''                                            '''#######################'''  
     '                                                          ''''####''''         
             ,#######,   #######,   ,#######,      ##                                
            ,#'     '#,  ##    ##  ,#'     '#,    #''#        ######   ,####,        
            ##       ##  ##   ,#'  ##            #'  '#       #        #'  '#        
            ##       ##  #######   ##           ,######,      #####,   #    #        
            '#,     ,#'  ##    ##  '#,     ,#' ,#      #,         ##   #,  ,#        
             '#######'   ##     ##  '#######'  #'      '#     #####' # '####'        



                  #######################################################
                  #                        -***-                        #
                  #          Department of theory and spectroscopy      #
                  #    Directorship and core code : Frank Neese         #
                  #        Max Planck Institute fuer Kohlenforschung    #
                  #                Kaiser Wilhelm Platz 1               #
                  #                 D-45470 Muelheim/Ruhr               #
                  #                      Germany                        #
                  #                                                     #
                  #                  All rights reserved                #
                  #                        -***-                        #
                  #######################################################



                         Program Version 5.0.4 -  RELEASE  -

 With contributions from (in alphabetic order):
   Daniel Aravena         : Magnetic Suceptibility
   Michael Atanasov       : Ab Initio Ligand Field Theory (pilot matlab implementation)
   Alexander A. Auer      : GIAO ZORA, VPT2 properties, NMR spectrum
   Ute Becker             : Parallelization
   Giovanni Bistoni       : ED, misc. LED, open-shell LED, HFLD
   Martin Brehm           : Molecular dynamics
   Dmytro Bykov           : SCF Hessian
   Vijay G. Chilkuri      : MRCI spin determinant printing, contributions to CSF-ICE
   Dipayan Datta          : RHF DLPNO-CCSD density
   Achintya Kumar Dutta   : EOM-CC, STEOM-CC
   Dmitry Ganyushin       : Spin-Orbit,Spin-Spin,Magnetic field MRCI
   Miquel Garcia          : C-PCM and meta-GGA Hessian, CC/C-PCM, Gaussian charge scheme
   Yang Guo               : DLPNO-NEVPT2, F12-NEVPT2, CIM, IAO-localization
   Andreas Hansen         : Spin unrestricted coupled pair/coupled cluster methods
   Benjamin Helmich-Paris : MC-RPA, TRAH-SCF, COSX integrals
   Lee Huntington         : MR-EOM, pCC
   Robert Izsak           : Overlap fitted RIJCOSX, COSX-SCS-MP3, EOM
   Marcus Kettner         : VPT2
   Christian Kollmar      : KDIIS, OOCD, Brueckner-CCSD(T), CCSD density, CASPT2, CASPT2-K
   Simone Kossmann        : Meta GGA functionals, TD-DFT gradient, OOMP2, MP2 Hessian
   Martin Krupicka        : Initial AUTO-CI
   Lucas Lang             : DCDCAS
   Marvin Lechner         : AUTO-CI (C++ implementation), FIC-MRCC
   Dagmar Lenk            : GEPOL surface, SMD
   Dimitrios Liakos       : Extrapolation schemes; Compound Job, initial MDCI parallelization
   Dimitrios Manganas     : Further ROCIS development; embedding schemes
   Dimitrios Pantazis     : SARC Basis sets
   Anastasios Papadopoulos: AUTO-CI, single reference methods and gradients
   Taras Petrenko         : DFT Hessian,TD-DFT gradient, ASA, ECA, R-Raman, ABS, FL, XAS/XES, NRVS
   Peter Pinski           : DLPNO-MP2, DLPNO-MP2 Gradient
   Christoph Reimann      : Effective Core Potentials
   Marius Retegan         : Local ZFS, SOC
   Christoph Riplinger    : Optimizer, TS searches, QM/MM, DLPNO-CCSD(T), (RO)-DLPNO pert. Triples
   Tobias Risthaus        : Range-separated hybrids, TD-DFT gradient, RPA, STAB
   Michael Roemelt        : Original ROCIS implementation
   Masaaki Saitow         : Open-shell DLPNO-CCSD energy and density
   Barbara Sandhoefer     : DKH picture change effects
   Avijit Sen             : IP-ROCIS
   Kantharuban Sivalingam : CASSCF convergence, NEVPT2, FIC-MRCI
   Bernardo de Souza      : ESD, SOC TD-DFT
   Georgi Stoychev        : AutoAux, RI-MP2 NMR, DLPNO-MP2 response
   Willem Van den Heuvel  : Paramagnetic NMR
   Boris Wezisla          : Elementary symmetry handling
   Frank Wennmohs         : Technical directorship


 We gratefully acknowledge several colleagues who have allowed us to
 interface, adapt or use parts of their codes:
   Stefan Grimme, W. Hujo, H. Kruse, P. Pracht,  : VdW corrections, initial TS optimization,
                  C. Bannwarth, S. Ehlert          DFT functionals, gCP, sTDA/sTD-DF
   Ed Valeev, F. Pavosevic, A. Kumar             : LibInt (2-el integral package), F12 methods
   Garnet Chan, S. Sharma, J. Yang, R. Olivares  : DMRG
   Ulf Ekstrom                                   : XCFun DFT Library
   Mihaly Kallay                                 : mrcc  (arbitrary order and MRCC methods)
   Jiri Pittner, Ondrej Demel                    : Mk-CCSD
   Frank Weinhold                                : gennbo (NPA and NBO analysis)
   Christopher J. Cramer and Donald G. Truhlar   : smd solvation model
   Lars Goerigk                                  : TD-DFT with DH, B97 family of functionals
   V. Asgeirsson, H. Jonsson                     : NEB implementation
   FAccTs GmbH                                   : IRC, NEB, NEB-TS, DLPNO-Multilevel, CI-OPT
                                                   MM, QMMM, 2- and 3-layer-ONIOM, Crystal-QMMM,
                                                   LR-CPCM, SF, NACMEs, symmetry and pop. for TD-DFT,
                                                   nearIR, NL-DFT gradient (VV10), updates on ESD,
                                                   ML-optimized integration grids
   S Lehtola, MJT Oliveira, MAL Marques          : LibXC Library
   Liviu Ungur et al                             : ANISO software


 Your calculation uses the libint2 library for the computation of 2-el integrals
 For citations please refer to: http://libint.valeyev.net

 Your ORCA version has been built with support for libXC version: 5.1.0
 For citations please refer to: https://tddft.org/programs/libxc/

 This ORCA versions uses:
   CBLAS   interface :  Fast vector & matrix operations
   LAPACKE interface :  Fast linear algebra routines
   Shared memory     :  Shared parallel matrices


================================================================================

----- Orbital basis set information -----
Your calculation utilizes the basis: STO-3G
   H-Ne       : W. J. Hehre, R. F. Stewart and J. A. Pople, J. Chem. Phys. 2657 (1969).
   Na-Ar      : W. J. Hehre, R. Ditchfield, R. F. Stewart and J. A. Pople, J. Chem. Phys. 2769 (1970).
   K,Ca,Ga-Kr : W. J. Pietro, B. A. Levy, W. J. Hehre and R. F. Stewart, J. Am. Chem. Soc. 19, 2225 (1980).
   Sc-Zn,Y-Cd : W. J. Pietro and W. J. Hehre, J. Comp. Chem. 4, 241 (1983).

----- AuxJ basis set information -----
Your calculation utilizes the auxiliary basis: def2/J
   F. Weigend, Phys. Chem. Chem. Phys. 8, 1057 (2006).

================================================================================
                                        WARNINGS
                       Please study these warnings very carefully!
================================================================================


WARNING: Geometry Optimization
  ===> : Switching off AutoStart
         For restart on a previous wavefunction, please use MOREAD

INFO   : the flag for use of the SHARK integral package has been found!

================================================================================
                                       INPUT FILE
================================================================================
NAME = Dexketoprofen\Dexketoprofen_PBE_STO-3G\Dexketoprofen_PBE_STO-3G.orcainp
|  1> # ORCA input file
|  2> # 
|  3> !PBE STO-3G Opt CPCM(WATER)
|  4> 
|  5> * xyz 0 1
|  6>    H        1.20551         0.10685         0.44594
|  7>    C        2.19632         0.04506        -0.02783
|  8>    C        3.21572        -0.37109         1.03186
|  9>    C        2.03439        -1.05108        -1.08502
| 10>    O        1.51321        -2.19903        -0.58151
| 11>    O        2.30324        -0.95546        -2.27392
| 12>    C        2.50710         1.44593        -0.54890
| 13>    C        3.40786         1.70154        -1.59807
| 14>    C        3.57635         3.00431        -2.10322
| 15>    C        2.93975         4.07783        -1.47365
| 16>    C        2.10702         3.84904        -0.38159
| 17>    C        1.88367         2.54538         0.06643
| 18>    C        4.40386         3.29606        -3.30921
| 19>    O        4.98348         4.37514        -3.39375
| 20>    C        4.52609         2.31329        -4.42517
| 21>    C        5.68066         2.33025        -5.21731
| 22>    C        5.84753         1.38292        -6.23056
| 23>    C        4.86240         0.42187        -6.45742
| 24>    C        3.69446         0.42873        -5.70106
| 25>    C        3.51418         1.38534        -4.70458
| 26>    H        2.94169        -1.32446         1.49691
| 27>    H        3.27834         0.37448         1.83212
| 28>    H        4.21497        -0.49366         0.60096
| 29>    H        1.29183        -2.17361         0.36870
| 30>    H        3.95639         0.87710        -2.04912
| 31>    H        3.08408         5.09274        -1.84030
| 32>    H        1.61795         4.68612         0.11116
| 33>    H        1.21218         2.39612         0.90952
| 34>    H        6.45597         3.07343        -5.04122
| 35>    H        6.75113         1.38817        -6.83519
| 36>    H        5.00308        -0.33209        -7.22859
| 37>    H        2.92174        -0.31696        -5.87375
| 38>    H        2.58039         1.38013        -4.14719
| 39> *
| 40> 
| 41>                          ****END OF INPUT****
================================================================================

                       *****************************
                       * Geometry Optimization Run *
                       *****************************

Geometry optimization settings:
Update method            Update   .... BFGS
Choice of coordinates    CoordSys .... Z-matrix Internals
Initial Hessian          InHess   .... Almoef's Model

Convergence Tolerances:
Energy Change            TolE     ....  5.0000e-06 Eh
Max. Gradient            TolMAXG  ....  3.0000e-04 Eh/bohr
RMS Gradient             TolRMSG  ....  1.0000e-04 Eh/bohr
Max. Displacement        TolMAXD  ....  4.0000e-03 bohr
RMS Displacement         TolRMSD  ....  2.0000e-03 bohr
Strict Convergence                ....  False
------------------------------------------------------------------------------
                        ORCA OPTIMIZATION COORDINATE SETUP
------------------------------------------------------------------------------

The optimization will be done in new redundant internal coordinates
Making redundant internal coordinates   ...  (new redundants) done
Evaluating the initial hessian          ...  (Almloef) done
Evaluating the coordinates              ...  done
Calculating the B-matrix                .... done
Calculating the G-matrix                .... done
Diagonalizing the G-matrix              .... done
Small eigenvalue found = 2.646e-03
Small eigenvalue found = 1.352e-02
Small eigenvalue found = 1.884e-02
Small eigenvalue found = 2.209e-02
The first mode is                       ....   75
The number of degrees of freedom        ....   93

    -----------------------------------------------------------------
                    Redundant Internal Coordinates


    -----------------------------------------------------------------
         Definition                    Initial Value    Approx d2E/dq
    -----------------------------------------------------------------
      1. B(C   1,H   0)                  1.1000         0.347123   
      2. B(C   2,C   1)                  1.5282         0.376096   
      3. B(C   3,C   1)                  1.5315         0.371565   
      4. B(O   4,C   3)                  1.3575         0.630447   
      5. B(O   5,C   3)                  1.2227         1.034784   
      6. B(C   6,C   1)                  1.5266         0.378258   
      7. B(C   7,C   6)                  1.4062         0.588648   
      8. B(C   8,C   7)                  1.4074         0.586108   
      9. B(C   9,C   8)                  1.3979         0.606973   
     10. B(C  10,C   9)                  1.3923         0.619638   
     11. B(C  11,C  10)                  1.3965         0.610115   
     12. B(C  11,C   6)                  1.4057         0.589708   
     13. B(C  12,C   8)                  1.4914         0.430473   
     14. B(O  13,C  12)                  1.2278         1.015401   
     15. B(C  14,C  12)                  1.4920         0.429498   
     16. B(C  15,C  14)                  1.4003         0.601624   
     17. B(C  16,C  15)                  1.3971         0.608657   
     18. B(C  17,C  16)                  1.3948         0.613798   
     19. B(C  18,C  17)                  1.3915         0.621413   
     20. B(C  19,C  18)                  1.3930         0.617845   
     21. B(C  19,C  14)                  1.4011         0.599799   
     22. B(H  20,C   2)                  1.0956         0.352804   
     23. B(H  21,C   2)                  1.0955         0.352843   
     24. B(H  22,C   2)                  1.0951         0.353443   
     25. B(H  23,O   4)                  0.9760         0.490295   
     26. B(H  24,C   7)                  1.0881         0.362579   
     27. B(H  25,C   9)                  1.0887         0.361801   
     28. B(H  26,C  10)                  1.0875         0.363399   
     29. B(H  27,C  11)                  1.0881         0.362612   
     30. B(H  28,C  15)                  1.0883         0.362336   
     31. B(H  29,C  16)                  1.0872         0.363765   
     32. B(H  30,C  17)                  1.0876         0.363242   
     33. B(H  31,C  18)                  1.0876         0.363229   
     34. B(H  32,C  19)                  1.0875         0.363411   
     35. A(C   2,C   1,C   3)          110.7512         0.363434   
     36. A(C   3,C   1,C   6)          116.2761         0.363790   
     37. A(H   0,C   1,C   2)          108.5114         0.322728   
     38. A(H   0,C   1,C   3)          104.0214         0.322087   
     39. A(H   0,C   1,C   6)          106.1905         0.323031   
     40. A(C   2,C   1,C   6)          110.5349         0.364545   
     41. A(C   1,C   2,H  21)          111.0595         0.323594   
     42. A(H  20,C   2,H  22)          107.3294         0.289060   
     43. A(C   1,C   2,H  20)          111.3751         0.323588   
     44. A(H  20,C   2,H  21)          107.2440         0.288983   
     45. A(H  21,C   2,H  22)          108.1464         0.289065   
     46. A(C   1,C   2,H  22)          111.4888         0.323684   
     47. A(O   4,C   3,O   5)          120.7440         0.471577   
     48. A(C   1,C   3,O   5)          126.3007         0.431245   
     49. A(C   1,C   3,O   4)          112.9418         0.394935   
     50. A(C   3,O   4,H  23)          115.2239         0.367455   
     51. A(C   7,C   6,C  11)          117.9369         0.426192   
     52. A(C   1,C   6,C  11)          118.5554         0.394074   
     53. A(C   1,C   6,C   7)          123.4947         0.393950   
     54. A(C   8,C   7,H  24)          119.4858         0.349977   
     55. A(C   6,C   7,C   8)          120.8460         0.425725   
     56. A(C   6,C   7,H  24)          119.6335         0.350233   
     57. A(C   7,C   8,C   9)          119.6500         0.428070   
     58. A(C   9,C   8,C  12)          117.8162         0.405193   
     59. A(C   7,C   8,C  12)          122.5297         0.402700   
     60. A(C   8,C   9,C  10)          119.9637         0.432366   
     61. A(C  10,C   9,H  25)          119.7779         0.353156   
     62. A(C   8,C   9,H  25)          120.2554         0.351924   
     63. A(C   9,C  10,H  26)          119.8606         0.353419   
     64. A(C  11,C  10,H  26)          120.0840         0.352494   
     65. A(C   9,C  10,C  11)          120.0475         0.432768   
     66. A(C  10,C  11,H  27)          118.3814         0.352365   
     67. A(C   6,C  11,H  27)          120.3686         0.350345   
     68. A(C   6,C  11,C  10)          121.2499         0.428937   
     69. A(O  13,C  12,C  14)          119.2564         0.441144   
     70. A(C   8,C  12,C  14)          121.4271         0.381385   
     71. A(C   8,C  12,O  13)          119.3099         0.441325   
     72. A(C  15,C  14,C  19)          119.3863         0.429164   
     73. A(C  12,C  14,C  19)          121.7511         0.404182   
     74. A(C  12,C  14,C  15)          118.8607         0.404399   
     75. A(C  14,C  15,C  16)          120.0353         0.430295   
     76. A(C  16,C  15,H  28)          119.6884         0.352177   
     77. A(C  14,C  15,H  28)          120.2734         0.351485   
     78. A(C  15,C  16,C  17)          120.0520         0.431846   
     79. A(C  17,C  16,H  29)          119.9904         0.352913   
     80. A(C  15,C  16,H  29)          119.9541         0.352411   
     81. A(C  16,C  17,C  18)          120.0665         0.433459   
     82. A(C  18,C  17,H  30)          119.8275         0.353565   
     83. A(C  16,C  17,H  30)          120.1055         0.352827   
     84. A(C  17,C  18,C  19)          120.0553         0.433972   
     85. A(C  19,C  18,H  31)          119.5009         0.353218   
     86. A(C  17,C  18,H  31)          120.4400         0.353562   
     87. A(C  14,C  19,C  18)          120.2640         0.431219   
     88. A(C  18,C  19,H  32)          118.3244         0.353248   
     89. A(C  14,C  19,H  32)          121.4058         0.351481   
     90. D(H  20,C   2,C   1,C   3)    -56.1226         0.011286   
     91. D(H  22,C   2,C   1,H   0)    177.3188         0.011286   
     92. D(H  21,C   2,C   1,C   3)   -175.5837         0.011286   
     93. D(H  21,C   2,C   1,H   0)    -62.0001         0.011286   
     94. D(H  21,C   2,C   1,C   6)     54.0664         0.011286   
     95. D(H  20,C   2,C   1,C   6)    173.5275         0.011286   
     96. D(H  22,C   2,C   1,C   6)    -66.6147         0.011286   
     97. D(H  20,C   2,C   1,H   0)     57.4611         0.011286   
     98. D(H  22,C   2,C   1,C   3)     63.7352         0.011286   
     99. D(O   5,C   3,C   1,C   2)   -116.7442         0.010333   
    100. D(O   5,C   3,C   1,H   0)    126.8604         0.010333   
    101. D(O   4,C   3,C   1,C   6)   -168.1495         0.010333   
    102. D(O   4,C   3,C   1,C   2)     64.5929         0.010333   
    103. D(O   5,C   3,C   1,C   6)     10.5134         0.010333   
    104. D(O   4,C   3,C   1,H   0)    -51.8025         0.010333   
    105. D(H  23,O   4,C   3,O   5)   -177.3659         0.029233   
    106. D(H  23,O   4,C   3,C   1)      1.3803         0.029233   
    107. D(C  11,C   6,C   1,C   2)    -92.6210         0.010683   
    108. D(C  11,C   6,C   1,H   0)     24.8820         0.010683   
    109. D(C   7,C   6,C   1,C   3)    -41.3302         0.010683   
    110. D(C  11,C   6,C   1,C   3)    140.0144         0.010683   
    111. D(C   7,C   6,C   1,C   2)     86.0344         0.010683   
    112. D(C   7,C   6,C   1,H   0)   -156.4626         0.010683   
    113. D(H  24,C   7,C   6,C  11)    175.8984         0.023840   
    114. D(H  24,C   7,C   6,C   1)     -2.7649         0.023840   
    115. D(C   8,C   7,C   6,C  11)     -6.2538         0.023840   
    116. D(C   8,C   7,C   6,C   1)    175.0830         0.023840   
    117. D(C  12,C   8,C   7,H  24)      4.7833         0.023625   
    118. D(C  12,C   8,C   7,C   6)   -173.0677         0.023625   
    119. D(C   9,C   8,C   7,H  24)   -175.9624         0.023625   
    120. D(C   9,C   8,C   7,C   6)      6.1865         0.023625   
    121. D(H  25,C   9,C   8,C  12)     -2.3134         0.025430   
    122. D(H  25,C   9,C   8,C   7)    178.3976         0.025430   
    123. D(C  10,C   9,C   8,C  12)    177.0477         0.025430   
    124. D(C  10,C   9,C   8,C   7)     -2.2414         0.025430   
    125. D(H  26,C  10,C   9,H  25)     -1.0521         0.026566   
    126. D(H  26,C  10,C   9,C   8)    179.5838         0.026566   
    127. D(C  11,C  10,C   9,H  25)    177.9273         0.026566   
    128. D(C  11,C  10,C   9,C   8)     -1.4368         0.026566   
    129. D(H  27,C  11,C  10,C   9)   -178.7815         0.025709   
    130. D(C   6,C  11,C  10,H  26)   -179.7456         0.025709   
    131. D(C   6,C  11,C  10,C   9)      1.2774         0.025709   
    132. D(H  27,C  11,C   6,C   7)   -177.4057         0.023930   
    133. D(H  27,C  11,C   6,C   1)      1.3251         0.023930   
    134. D(C  10,C  11,C   6,C   7)      2.5342         0.023930   
    135. D(H  27,C  11,C  10,H  26)      0.1955         0.025709   
    136. D(C  10,C  11,C   6,C   1)   -178.7349         0.023930   
    137. D(C  14,C  12,C   8,C   9)   -147.5265         0.012660   
    138. D(C  14,C  12,C   8,C   7)     31.7407         0.012660   
    139. D(O  13,C  12,C   8,C   9)     31.5289         0.012660   
    140. D(O  13,C  12,C   8,C   7)   -149.2039         0.012660   
    141. D(C  19,C  14,C  12,O  13)   -151.5207         0.012605   
    142. D(C  19,C  14,C  12,C   8)     27.5353         0.012605   
    143. D(C  15,C  14,C  12,O  13)     27.9862         0.012605   
    144. D(C  15,C  14,C  12,C   8)   -152.9578         0.012605   
    145. D(H  28,C  15,C  14,C  19)    177.2801         0.024959   
    146. D(H  28,C  15,C  14,C  12)     -2.2387         0.024959   
    147. D(C  16,C  15,C  14,C  19)     -3.3333         0.024959   
    148. D(C  16,C  15,C  14,C  12)    177.1479         0.024959   
    149. D(H  29,C  16,C  15,H  28)      0.2926         0.025579   
    150. D(H  29,C  16,C  15,C  14)   -179.0976         0.025579   
    151. D(C  17,C  16,C  15,H  28)    179.6058         0.025579   
    152. D(C  17,C  16,C  15,C  14)      0.2156         0.025579   
    153. D(H  30,C  17,C  16,H  29)      0.9206         0.026039   
    154. D(H  30,C  17,C  16,C  15)   -178.3923         0.026039   
    155. D(C  18,C  17,C  16,H  29)   -178.8178         0.026039   
    156. D(C  18,C  17,C  16,C  15)      1.8693         0.026039   
    157. D(H  31,C  18,C  17,H  30)      0.1776         0.026728   
    158. D(H  31,C  18,C  17,C  16)    179.9167         0.026728   
    159. D(C  19,C  18,C  17,H  30)    179.4624         0.026728   
    160. D(C  19,C  18,C  17,C  16)     -0.7984         0.026728   
    161. D(H  32,C  19,C  18,C  17)    178.5074         0.026404   
    162. D(C  14,C  19,C  18,H  31)    176.9310         0.026404   
    163. D(C  14,C  19,C  18,C  17)     -2.3606         0.026404   
    164. D(H  32,C  19,C  14,C  15)   -176.4825         0.024800   
    165. D(H  32,C  19,C  14,C  12)      3.0219         0.024800   
    166. D(C  18,C  19,C  14,C  15)      4.4127         0.024800   
    167. D(H  32,C  19,C  18,H  31)     -2.2011         0.026404   
    168. D(C  18,C  19,C  14,C  12)   -176.0829         0.024800   
    -----------------------------------------------------------------

Number of atoms                         .... 33
Number of degrees of freedom            .... 168

         *************************************************************
         *                GEOMETRY OPTIMIZATION CYCLE   1            *
         *************************************************************
---------------------------------
CARTESIAN COORDINATES (ANGSTROEM)
---------------------------------
  H      1.205510    0.106850    0.445940
  C      2.196320    0.045060   -0.027830
  C      3.215720   -0.371090    1.031860
  C      2.034390   -1.051080   -1.085020
  O      1.513210   -2.199030   -0.581510
  O      2.303240   -0.955460   -2.273920
  C      2.507100    1.445930   -0.548900
  C      3.407860    1.701540   -1.598070
  C      3.576350    3.004310   -2.103220
  C      2.939750    4.077830   -1.473650
  C      2.107020    3.849040   -0.381590
  C      1.883670    2.545380    0.066430
  C      4.403860    3.296060   -3.309210
  O      4.983480    4.375140   -3.393750
  C      4.526090    2.313290   -4.425170
  C      5.680660    2.330250   -5.217310
  C      5.847530    1.382920   -6.230560
  C      4.862400    0.421870   -6.457420
  C      3.694460    0.428730   -5.701060
  C      3.514180    1.385340   -4.704580
  H      2.941690   -1.324460    1.496910
  H      3.278340    0.374480    1.832120
  H      4.214970   -0.493660    0.600960
  H      1.291830   -2.173610    0.368700
  H      3.956390    0.877100   -2.049120
  H      3.084080    5.092740   -1.840300
  H      1.617950    4.686120    0.111160
  H      1.212180    2.396120    0.909520
  H      6.455970    3.073430   -5.041220
  H      6.751130    1.388170   -6.835190
  H      5.003080   -0.332090   -7.228590
  H      2.921740   -0.316960   -5.873750
  H      2.580390    1.380130   -4.147190

----------------------------
CARTESIAN COORDINATES (A.U.)
----------------------------
  NO LB      ZA    FRAG     MASS         X           Y           Z
   0 H     1.0000    0     1.008    2.278084    0.201917    0.842704
   1 C     6.0000    0    12.011    4.150443    0.085151   -0.052591
   2 C     6.0000    0    12.011    6.076830   -0.701258    1.949933
   3 C     6.0000    0    12.011    3.844440   -1.986253   -2.050391
   4 O     8.0000    0    15.999    2.859552   -4.155564   -1.098895
   5 O     8.0000    0    15.999    4.352493   -1.805558   -4.297086
   6 C     6.0000    0    12.011    4.737732    2.732412   -1.037271
   7 C     6.0000    0    12.011    6.439922    3.215445   -3.019915
   8 C     6.0000    0    12.011    6.758322    5.677323   -3.974510
   9 C     6.0000    0    12.011    5.555322    7.705982   -2.784795
  10 C     6.0000    0    12.011    3.981691    7.273631   -0.721101
  11 C     6.0000    0    12.011    3.559620    4.810071    0.125535
  12 C     6.0000    0    12.011    8.322089    6.228651   -6.253501
  13 O     8.0000    0    15.999    9.417412    8.267816   -6.413258
  14 C     6.0000    0    12.011    8.553071    4.371485   -8.362359
  15 C     6.0000    0    12.011   10.734892    4.403534   -9.859287
  16 C     6.0000    0    12.011   11.050230    2.613340  -11.774052
  17 C     6.0000    0    12.011    9.188604    0.797219  -12.202755
  18 C     6.0000    0    12.011    6.981518    0.810182  -10.773442
  19 C     6.0000    0    12.011    6.640838    2.617913   -8.890368
  20 H     1.0000    0     1.008    5.558988   -2.502867    2.828750
  21 H     1.0000    0     1.008    6.195165    0.707665    3.462205
  22 H     1.0000    0     1.008    7.965139   -0.932882    1.135650
  23 H     1.0000    0     1.008    2.441205   -4.107528    0.696742
  24 H     1.0000    0     1.008    7.476494    1.657479   -3.872276
  25 H     1.0000    0     1.008    5.828067    9.623884   -3.477663
  26 H     1.0000    0     1.008    3.057482    8.855483    0.210062
  27 H     1.0000    0     1.008    2.290688    4.528011    1.718744
  28 H     1.0000    0     1.008   12.200015    5.807941   -9.526525
  29 H     1.0000    0     1.008   12.757787    2.623261  -12.916637
  30 H     1.0000    0     1.008    9.454451   -0.627559  -13.660055
  31 H     1.0000    0     1.008    5.521288   -0.598968  -11.099779
  32 H     1.0000    0     1.008    4.876230    2.608068   -7.837053

--------------------------------
INTERNAL COORDINATES (ANGSTROEM)
--------------------------------
 H      0   0   0     0.000000000000     0.00000000     0.00000000
 C      1   0   0     1.099991124101     0.00000000     0.00000000
 C      2   1   0     1.528168864557   108.51135774     0.00000000
 C      2   1   3     1.531468223830   104.02143771   117.95178597
 O      4   2   1     1.357549304814   112.94180549   308.19749142
 O      4   2   1     1.222663779172   126.30068558   126.86040679
 C      2   1   3     1.526608957854   106.19054680   241.15726338
 C      7   2   1     1.406222862351   123.49467201   203.53742126
 C      8   7   2     1.407400112086   120.84601518   175.08302848
 C      9   8   7     1.397878083132   119.65003115     6.18653743
 C     10   9   8     1.392256858701   119.96366075   357.75859134
 C     11  10   9     1.396472892146   120.04747596   358.56316984
 C      9   8   7     1.491409649526   122.52974363   186.93231052
 O     13   9   8     1.227811061361   119.30987539   210.79614652
 C     13   9   8     1.492026731463   121.42707350    31.74070861
 C     15  13   9     1.400287579785   118.86073136   207.04217239
 C     16  15  13     1.397123934481   120.03533150   177.14790203
 C     17  16  15     1.394834642171   120.05196722     0.21560755
 C     18  17  16     1.391478117974   120.06653208     1.86926396
 C     19  18  17     1.393045570288   120.05530666   359.20157175
 H      3   2   1     1.095572133773   111.37514923    57.46107069
 H      3   2   1     1.095541855385   111.05952505   297.99994094
 H      3   2   1     1.095079347536   111.48878184   177.31884462
 H      5   4   2     0.975988895890   115.22392742     1.38027354
 H      8   7   2     1.088132610025   119.63352360   357.23514979
 H     10   9   8     1.088717447045   120.25536691   178.39756324
 H     11  10   9     1.087517794705   119.86063226   179.58382038
 H     12  11  10     1.088107584662   118.38138583   181.21845967
 H     16  15  13     1.088315118245   120.27340199   357.76132217
 H     17  16  15     1.087243284366   119.95405175   180.90240607
 H     18  17  16     1.087634917102   120.10547744   181.60769337
 H     19  18  17     1.087644983715   120.43997487   179.91671034
 H     20  19  18     1.087508400105   118.32441656   178.50735426

---------------------------
INTERNAL COORDINATES (A.U.)
---------------------------
 H      0   0   0     0.000000000000     0.00000000     0.00000000
 C      1   0   0     2.078681974294     0.00000000     0.00000000
 C      2   1   0     2.887820640397   108.51135774     0.00000000
 C      2   1   3     2.894055525841   104.02143771   117.95178597
 O      4   2   1     2.565396399393   112.94180549   308.19749142
 O      4   2   1     2.310499696501   126.30068558   126.86040679
 C      2   1   3     2.884872843935   106.19054680   241.15726338
 C      7   2   1     2.657376093103   123.49467201   203.53742126
 C      8   7   2     2.659600772693   120.84601518   175.08302848
 C      9   8   7     2.641606745730   119.65003115     6.18653743
 C     10   9   8     2.630984171018   119.96366075   357.75859134
 C     11  10   9     2.638951319602   120.04747596   358.56316984
 C      9   8   7     2.818355791092   122.52974363   186.93231052
 O     13   9   8     2.320226650171   119.30987539   210.79614652
 C     13   9   8     2.819521906955   121.42707350    31.74070861
 C     15  13   9     2.646160034525   118.86073136   207.04217239
 C     16  15  13     2.640181611316   120.03533150   177.14790203
 C     17  16  15     2.635855475809   120.05196722     0.21560755
 C     18  17  16     2.629512564315   120.06653208     1.86926396
 C     19  18  17     2.632474619917   120.05530666   359.20157175
 H      3   2   1     2.070331292787   111.37514923    57.46107069
 H      3   2   1     2.070274074925   111.05952505   297.99994094
 H      3   2   1     2.069400061756   111.48878184   177.31884462
 H      5   4   2     1.844351722980   115.22392742     1.38027354
 H      8   7   2     2.056272630336   119.63352360   357.23514979
 H     10   9   8     2.057377812137   120.25536691   178.39756324
 H     11  10   9     2.055110797758   119.86063226   179.58382038
 H     12  11  10     2.056225339255   118.38138583   181.21845967
 H     16  15  13     2.056617520889   120.27340199   357.76132217
 H     17  16  15     2.054592048398   119.95405175   180.90240607
 H     18  17  16     2.055332127013   120.10547744   181.60769337
 H     19  18  17     2.055351150154   120.43997487   179.91671034
 H     20  19  18     2.055093044538   118.32441656   178.50735426

---------------------
BASIS SET INFORMATION
---------------------
There are 3 groups of distinct atoms

 Group   1 Type H   : 3s contracted to 1s pattern {3}
 Group   2 Type C   : 6s3p contracted to 2s1p pattern {33/3}
 Group   3 Type O   : 6s3p contracted to 2s1p pattern {33/3}

Atom   0H    basis set group =>   1
Atom   1C    basis set group =>   2
Atom   2C    basis set group =>   2
Atom   3C    basis set group =>   2
Atom   4O    basis set group =>   3
Atom   5O    basis set group =>   3
Atom   6C    basis set group =>   2
Atom   7C    basis set group =>   2
Atom   8C    basis set group =>   2
Atom   9C    basis set group =>   2
Atom  10C    basis set group =>   2
Atom  11C    basis set group =>   2
Atom  12C    basis set group =>   2
Atom  13O    basis set group =>   3
Atom  14C    basis set group =>   2
Atom  15C    basis set group =>   2
Atom  16C    basis set group =>   2
Atom  17C    basis set group =>   2
Atom  18C    basis set group =>   2
Atom  19C    basis set group =>   2
Atom  20H    basis set group =>   1
Atom  21H    basis set group =>   1
Atom  22H    basis set group =>   1
Atom  23H    basis set group =>   1
Atom  24H    basis set group =>   1
Atom  25H    basis set group =>   1
Atom  26H    basis set group =>   1
Atom  27H    basis set group =>   1
Atom  28H    basis set group =>   1
Atom  29H    basis set group =>   1
Atom  30H    basis set group =>   1
Atom  31H    basis set group =>   1
Atom  32H    basis set group =>   1
---------------------------------
AUXILIARY/J BASIS SET INFORMATION
---------------------------------
There are 3 groups of distinct atoms

 Group   1 Type H   : 5s2p1d contracted to 3s1p1d pattern {311/2/1}
 Group   2 Type C   : 12s5p4d2f1g contracted to 6s4p3d1f1g pattern {711111/2111/211/2/1}
 Group   3 Type O   : 12s5p4d2f1g contracted to 6s4p3d1f1g pattern {711111/2111/211/2/1}

Atom   0H    basis set group =>   1
Atom   1C    basis set group =>   2
Atom   2C    basis set group =>   2
Atom   3C    basis set group =>   2
Atom   4O    basis set group =>   3
Atom   5O    basis set group =>   3
Atom   6C    basis set group =>   2
Atom   7C    basis set group =>   2
Atom   8C    basis set group =>   2
Atom   9C    basis set group =>   2
Atom  10C    basis set group =>   2
Atom  11C    basis set group =>   2
Atom  12C    basis set group =>   2
Atom  13O    basis set group =>   3
Atom  14C    basis set group =>   2
Atom  15C    basis set group =>   2
Atom  16C    basis set group =>   2
Atom  17C    basis set group =>   2
Atom  18C    basis set group =>   2
Atom  19C    basis set group =>   2
Atom  20H    basis set group =>   1
Atom  21H    basis set group =>   1
Atom  22H    basis set group =>   1
Atom  23H    basis set group =>   1
Atom  24H    basis set group =>   1
Atom  25H    basis set group =>   1
Atom  26H    basis set group =>   1
Atom  27H    basis set group =>   1
Atom  28H    basis set group =>   1
Atom  29H    basis set group =>   1
Atom  30H    basis set group =>   1
Atom  31H    basis set group =>   1
Atom  32H    basis set group =>   1
------------------------------------------------------------------------------
                           ORCA GTO INTEGRAL CALCULATION
                           -- RI-GTO INTEGRALS CHOSEN --
------------------------------------------------------------------------------
------------------------------------------------------------------------------
                   ___                                                        
                  /   \      - P O W E R E D   B Y -                         
                 /     \                                                     
                 |  |  |   _    _      __       _____    __    __             
                 |  |  |  | |  | |    /  \     |  _  \  |  |  /  |          
                  \  \/   | |  | |   /    \    | | | |  |  | /  /          
                 / \  \   | |__| |  /  /\  \   | |_| |  |  |/  /          
                |  |  |   |  __  | /  /__\  \  |    /   |      \           
                |  |  |   | |  | | |   __   |  |    \   |  |\   \          
                \     /   | |  | | |  |  |  |  | |\  \  |  | \   \       
                 \___/    |_|  |_| |__|  |__|  |_| \__\ |__|  \__/        
                                                                              
                      - O R C A' S   B I G   F R I E N D -                    
                                      &                                       
                       - I N T E G R A L  F E E D E R -                       
                                                                              
 v1 FN, 2020, v2 2021                                                         
------------------------------------------------------------------------------


Reading SHARK input file Dexketoprofen\Dexketoprofen_PBE_STO-3G\Dexketoprofen_PBE_STO-3G.orcainp.SHARKINP.tmp ... ok
----------------------
SHARK INTEGRAL PACKAGE
----------------------

Number of atoms                             ...     33
Number of basis functions                   ...    109
Number of shells                            ...     71
Maximum angular momentum                    ...      1
Integral batch strategy                     ... SHARK/LIBINT Hybrid
RI-J (if used) integral strategy            ... SPLIT-RIJ (Revised 2003 algorithm where possible)
Printlevel                                  ...      1
Contraction scheme used                     ... SEGMENTED contraction
Coulomb Range Separation                    ... NOT USED
Exchange Range Separation                   ... NOT USED
Finite Nucleus Model                        ... NOT USED
Auxiliary Coulomb fitting basis             ... AVAILABLE
   # of basis functions in Aux-J            ...   1085
   # of shells in Aux-J                     ...    355
   Maximum angular momentum in Aux-J        ...      4
Auxiliary J/K fitting basis                 ... NOT available
Auxiliary Correlation fitting basis         ... NOT available
Auxiliary 'external' fitting basis          ... NOT available
Integral threshold                          ...     2.500000e-11
Primitive cut-off                           ...     2.500000e-12
Primitive pair pre-selection threshold      ...     2.500000e-12

Calculating pre-screening integrals         ... done (  0.0 sec) Dimension = 71
Organizing shell pair data                  ... done (  0.0 sec)
Shell pair information
Total number of shell pairs                 ...      2556
Shell pairs after pre-screening             ...      2120
Total number of primitive shell pairs       ...     23004
Primitive shell pairs kept                  ...     11691
          la=0 lb=0:   1043 shell pairs
          la=1 lb=0:    890 shell pairs
          la=1 lb=1:    187 shell pairs

Calculating one electron integrals          ... done (  0.0 sec)
Calculating RI/J V-Matrix + Cholesky decomp.... done (  0.0 sec)
Calculating Nuclear repulsion               ... done (  0.0 sec) ENN=   1331.240257590276 Eh

SHARK setup successfully completed in   0.1 seconds

Maximum memory used throughout the entire GTOINT-calculation: 24.3 MB
-------------------------------------------------------------------------------
                                 ORCA SCF
-------------------------------------------------------------------------------

------------
SCF SETTINGS
------------
Hamiltonian:
 Density Functional     Method          .... DFT(GTOs)
 Exchange Functional    Exchange        .... PBE
   PBE kappa parameter   XKappa         ....  0.804000
   PBE mue parameter    XMuePBE         ....  0.219520
 Correlation Functional Correlation     .... PBE
   PBE beta parameter  CBetaPBE         ....  0.066725
 LDA part of GGA corr.  LDAOpt          .... PW91-LDA
 Gradients option       PostSCFGGA      .... off
   Density functional embedding theory  .... OFF
   NL short-range parameter             ....  6.400000
 RI-approximation to the Coulomb term is turned on
   Number of AuxJ basis functions       .... 1085


General Settings:
 Integral files         IntName         .... Dexketoprofen\Dexketoprofen_PBE_STO-3G\Dexketoprofen_PBE_STO-3G.orcainp
 Hartree-Fock type      HFTyp           .... RHF
 Total Charge           Charge          ....    0
 Multiplicity           Mult            ....    1
 Number of Electrons    NEL             ....  134
 Basis Dimension        Dim             ....  109
 Nuclear Repulsion      ENuc            ....   1331.2402575903 Eh

Convergence Acceleration:
 DIIS                   CNVDIIS         .... on
   Start iteration      DIISMaxIt       ....    12
   Startup error        DIISStart       ....  0.200000
   # of expansion vecs  DIISMaxEq       ....     5
   Bias factor          DIISBfac        ....   1.050
   Max. coefficient     DIISMaxC        ....  10.000
 Trust-Rad. Augm. Hess. CNVTRAH         .... auto
   Auto Start mean grad. ratio tolernc. ....  1.125000
   Auto Start start iteration           ....    20
   Auto Start num. interpolation iter.  ....    10
   Max. Number of Micro iterations      ....    16
   Max. Number of Macro iterations      .... Maxiter - #DIIS iter
   Number of Davidson start vectors     ....     2
   Converg. threshold I  (grad. norm)   ....   1.000e-05
   Converg. threshold II (energy diff.) ....   1.000e-08
   Grad. Scal. Fac. for Micro threshold ....   0.100
   Minimum threshold for Micro iter.    ....   0.010
   NR start threshold (gradient norm)   ....   0.001
   Initial trust radius                 ....   0.400
   Minimum AH scaling param. (alpha)    ....   1.000
   Maximum AH scaling param. (alpha)    .... 1000.000
   Orbital update algorithm             .... Taylor
   White noise on init. David. guess    .... on
   Maximum white noise                  ....   0.010
   Quad. conv. algorithm                .... NR
 SOSCF                  CNVSOSCF        .... on
   Start iteration      SOSCFMaxIt      ....   150
   Startup grad/error   SOSCFStart      ....  0.003300
 Level Shifting         CNVShift        .... on
   Level shift para.    LevelShift      ....    0.2500
   Turn off err/grad.   ShiftErr        ....    0.0010
 Zerner damping         CNVZerner       .... off
 Static damping         CNVDamp         .... on
   Fraction old density DampFac         ....    0.7000
   Max. Damping (<1)    DampMax         ....    0.9800
   Min. Damping (>=0)   DampMin         ....    0.0000
   Turn off err/grad.   DampErr         ....    0.1000
 Fernandez-Rico         CNVRico         .... off

SCF Procedure:
 Maximum # iterations   MaxIter         ....   125
 SCF integral mode      SCFMode         .... Direct
   Integral package                     .... SHARK and LIBINT hybrid scheme
 Reset frequency        DirectResetFreq ....    20
 Integral Threshold     Thresh          ....  2.500e-11 Eh
 Primitive CutOff       TCut            ....  2.500e-12 Eh

Convergence Tolerance:
 Convergence Check Mode ConvCheckMode   .... Total+1el-Energy
 Convergence forced     ConvForced      .... 0
 Energy Change          TolE            ....  1.000e-08 Eh
 1-El. energy change                    ....  1.000e-05 Eh
 Orbital Gradient       TolG            ....  1.000e-05
 Orbital Rotation angle TolX            ....  1.000e-05
 DIIS Error             TolErr          ....  5.000e-07


Diagonalization of the overlap matrix:
Smallest eigenvalue                        ... 1.719e-01
Time for diagonalization                   ...    0.001 sec
Threshold for overlap eigenvalues          ... 1.000e-08
Number of eigenvalues below threshold      ... 0
Time for construction of square roots      ...    0.001 sec
Total time needed                          ...    0.002 sec

Time for model grid setup =    0.226 sec

------------------------------
INITIAL GUESS: MODEL POTENTIAL
------------------------------
Loading Hartree-Fock densities                     ... done
Calculating cut-offs                               ... done
Initializing the effective Hamiltonian             ... done
Setting up the integral package (SHARK)            ... done
Starting the Coulomb interaction                   ... done (   0.1 sec)
Reading the grid                                   ... done
Mapping shells                                     ... done
Starting the XC term evaluation                    ... done (   0.1 sec)
  promolecular density results
     # of electrons  =    134.002060170
     EX              =   -110.376210124
     EC              =     -4.478339564
     EX+EC           =   -114.854549687
Transforming the Hamiltonian                       ... done (   0.0 sec)
Diagonalizing the Hamiltonian                      ... done (   0.0 sec)
Back transforming the eigenvectors                 ... done (   0.0 sec)
Now organizing SCF variables                       ... done
                      ------------------
                      INITIAL GUESS DONE (   0.4 sec)
                      ------------------
-------------------
DFT GRID GENERATION
-------------------

General Integration Accuracy     IntAcc      ... 4.388
Radial Grid Type                 RadialGrid  ... OptM3 with GC (2021)
Angular Grid (max. ang.)         AngularGrid ... 4 (Lebedev-302)
Angular grid pruning method      GridPruning ... 4 (adaptive)
Weight generation scheme         WeightScheme... Becke
Basis function cutoff            BFCut       ... 1.0000e-11
Integration weight cutoff        WCut        ... 1.0000e-14
Angular grids for H and He will be reduced by one unit
Partially contracted basis set               ... off
Rotationally invariant grid construction     ... off

Total number of grid points                  ...   158497
Total number of batches                      ...     2492
Average number of points per batch           ...       63
Average number of grid points per atom       ...     4803
Time for grid setup =    0.859 sec


--------------------
CPCM SOLVATION MODEL
--------------------
CPCM parameters:
  Epsilon                                         ...      80.4000
  Refrac                                          ...       1.3300
  Rsolv                                           ...       1.3000
  Surface type                                    ... GAUSSIAN VDW
  Epsilon function type                           ...         CPCM
Radii:
 Radius for H  used is    2.4944 Bohr (=   1.3200 Ang.)
 Radius for C  used is    3.8550 Bohr (=   2.0400 Ang.)
 Radius for O  used is    3.4469 Bohr (=   1.8240 Ang.)
Calculating surface                               ...        done! (  0.0s)
GEPOL surface points                              ...         1766
GEPOL Volume                                      ...    2090.2735
GEPOL Surface-area                                ...    1070.1117
Calculating surface distance matrix               ...        done! (  0.0s)
Performing Cholesky decomposition & store         ...        done! (  0.0s)
Overall time for CPCM initialization              ...                 0.1s
--------------
SCF ITERATIONS
--------------
ITER       Energy         Delta-E        Max-DP      RMS-DP      [F,P]     Damp
               ***  Starting incremental Fock matrix formation  ***
  0   -831.9526137740   0.000000000000 0.14652871  0.00437512  0.2253918 0.7000
  1   -832.0450835162  -0.092469742197 0.09296513  0.00275792  0.0819876 0.7000
                               ***Turning on DIIS***
  2   -832.0719552944  -0.026871778197 0.10168447  0.00375440  0.0433855 0.0000
  3   -832.1225028020  -0.050547507614 0.07830676  0.00210084  0.0563632 0.0000
  4   -832.1316620724  -0.009159270410 0.01831270  0.00076395  0.0203284 0.0000
  5   -832.1342166370  -0.002554564567 0.00389818  0.00020219  0.0050425 0.0000
                      *** Initiating the SOSCF procedure ***
                           *** Shutting down DIIS ***
                      *** Re-Reading the Fockian *** 
                      *** Removing any level shift *** 
ITER      Energy       Delta-E        Grad      Rot      Max-DP    RMS-DP
  6   -832.13436257  -0.0001459380  0.000852  0.000852  0.002907  0.000066
               *** Restarting incremental Fock matrix formation ***
  7   -832.13437684  -0.0000142620  0.000194  0.000799  0.002938  0.000064
  8   -832.13437087   0.0000059625  0.000571  0.000638  0.002299  0.000046
  9   -832.13437814  -0.0000072666  0.000038  0.000175  0.000318  0.000013
 10   -832.13437805   0.0000000901  0.000053  0.000108  0.000255  0.000008
 11   -832.13437821  -0.0000001604  0.000010  0.000031  0.000079  0.000004
 12   -832.13437820   0.0000000069  0.000026  0.000042  0.000085  0.000002
 13   -832.13437822  -0.0000000127  0.000015  0.000050  0.000075  0.000002
 14   -832.13437822  -0.0000000026  0.000026  0.000031  0.000048  0.000001
                  ***Gradient check signals convergence***
              ***Rediagonalizing the Fockian in SOSCF/NRSCF***

               *****************************************************
               *                     SUCCESS                       *
               *           SCF CONVERGED AFTER  15 CYCLES          *
               *****************************************************


----------------
TOTAL SCF ENERGY
----------------

Total Energy       :         -832.13437822 Eh          -22643.52761 eV

Components:
Nuclear Repulsion  :         1331.24025759 Eh           36224.88905 eV
Electronic Energy  :        -2163.37463581 Eh          -58868.41665 eV
One Electron Energy:        -3782.49576178 Eh         -102926.94238 eV
Two Electron Energy:         1619.12112597 Eh           44058.52573 eV
CPCM Dielectric    :           -0.01320049 Eh              -0.35920 eV

Virial components:
Potential Energy   :        -1651.90049429 Eh          -44950.49769 eV
Kinetic Energy     :          819.76611606 Eh           22306.97008 eV
Virial Ratio       :            2.01508755


DFT components:
N(Alpha)           :       67.000038102297 electrons
N(Beta)            :       67.000038102297 electrons
N(Total)           :      134.000076204594 electrons
E(X)               :     -112.252006595613 Eh       
E(C)               :       -4.644111642784 Eh       
E(XC)              :     -116.896118238397 Eh       
DFET-embed. en.    :        0.000000000000 Eh       
CPCM Solvation Model Properties:
Surface-charge          :           -0.01132596
Charge-correction       :            0.00003598 Eh               0.00098 eV
Free-energy (cav+disp)  :  This term is not implemented in the current solvation scheme

---------------
SCF CONVERGENCE
---------------

  Last Energy change         ...   -3.6476e-09  Tolerance :   1.0000e-08
  Last MAX-Density change    ...    1.2967e-05  Tolerance :   1.0000e-07
  Last RMS-Density change    ...    3.3088e-07  Tolerance :   5.0000e-09
  Last Orbital Gradient      ...    8.7956e-07  Tolerance :   1.0000e-05
  Last Orbital Rotation      ...    2.9896e-06  Tolerance :   1.0000e-05

             **** THE GBW FILE WAS UPDATED (Dexketoprofen\Dexketoprofen_PBE_STO-3G\Dexketoprofen_PBE_STO-3G.orcainp.gbw) ****
             **** DENSITY Dexketoprofen\Dexketoprofen_PBE_STO-3G\Dexketoprofen_PBE_STO-3G.orcainp.scfp WAS UPDATED ****
             **** ENERGY FILE WAS UPDATED (Dexketoprofen\Dexketoprofen_PBE_STO-3G\Dexketoprofen_PBE_STO-3G.orcainp.en.tmp) ****
             **** THE GBW FILE WAS UPDATED (Dexketoprofen\Dexketoprofen_PBE_STO-3G\Dexketoprofen_PBE_STO-3G.orcainp.gbw) ****
             **** DENSITY Dexketoprofen\Dexketoprofen_PBE_STO-3G\Dexketoprofen_PBE_STO-3G.orcainp.scfp WAS UPDATED ****
----------------
ORBITAL ENERGIES
----------------

  NO   OCC          E(Eh)            E(eV) 
   0   2.0000     -18.554983      -504.9068 
   1   2.0000     -18.504657      -503.5373 
   2   2.0000     -18.482603      -502.9372 
   3   2.0000      -9.808413      -266.9005 
   4   2.0000      -9.787765      -266.3386 
   5   2.0000      -9.741762      -265.0868 
   6   2.0000      -9.728129      -264.7158 
   7   2.0000      -9.725687      -264.6494 
   8   2.0000      -9.722880      -264.5730 
   9   2.0000      -9.719942      -264.4931 
  10   2.0000      -9.719596      -264.4837 
  11   2.0000      -9.719003      -264.4675 
  12   2.0000      -9.718452      -264.4525 
  13   2.0000      -9.717996      -264.4401 
  14   2.0000      -9.717179      -264.4179 
  15   2.0000      -9.715965      -264.3848 
  16   2.0000      -9.715132      -264.3622 
  17   2.0000      -9.715055      -264.3601 
  18   2.0000      -9.714190      -264.3365 
  19   2.0000      -0.942184       -25.6381 
  20   2.0000      -0.903372       -24.5820 
  21   2.0000      -0.863189       -23.4886 
  22   2.0000      -0.743123       -20.2214 
  23   2.0000      -0.738774       -20.1031 
  24   2.0000      -0.687917       -18.7192 
  25   2.0000      -0.654633       -17.8135 
  26   2.0000      -0.638385       -17.3713 
  27   2.0000      -0.631590       -17.1864 
  28   2.0000      -0.621562       -16.9136 
  29   2.0000      -0.550561       -14.9815 
  30   2.0000      -0.540995       -14.7212 
  31   2.0000      -0.512271       -13.9396 
  32   2.0000      -0.507240       -13.8027 
  33   2.0000      -0.497977       -13.5506 
  34   2.0000      -0.480731       -13.0813 
  35   2.0000      -0.450771       -12.2661 
  36   2.0000      -0.430604       -11.7173 
  37   2.0000      -0.406388       -11.0584 
  38   2.0000      -0.399995       -10.8844 
  39   2.0000      -0.378801       -10.3077 
  40   2.0000      -0.363767        -9.8986 
  41   2.0000      -0.356152        -9.6914 
  42   2.0000      -0.348977        -9.4961 
  43   2.0000      -0.341714        -9.2985 
  44   2.0000      -0.337211        -9.1760 
  45   2.0000      -0.334785        -9.1100 
  46   2.0000      -0.332119        -9.0374 
  47   2.0000      -0.304150        -8.2763 
  48   2.0000      -0.295853        -8.0506 
  49   2.0000      -0.294001        -8.0002 
  50   2.0000      -0.288630        -7.8540 
  51   2.0000      -0.276082        -7.5126 
  52   2.0000      -0.269803        -7.3417 
  53   2.0000      -0.266226        -7.2444 
  54   2.0000      -0.260180        -7.0798 
  55   2.0000      -0.256109        -6.9691 
  56   2.0000      -0.253425        -6.8960 
  57   2.0000      -0.240876        -6.5546 
  58   2.0000      -0.237979        -6.4757 
  59   2.0000      -0.198277        -5.3954 
  60   2.0000      -0.172870        -4.7040 
  61   2.0000      -0.171060        -4.6548 
  62   2.0000      -0.162282        -4.4159 
  63   2.0000      -0.160657        -4.3717 
  64   2.0000      -0.138729        -3.7750 
  65   2.0000      -0.094255        -2.5648 
  66   2.0000      -0.087557        -2.3826 
  67   0.0000       0.000886         0.0241 
  68   0.0000       0.049213         1.3391 
  69   0.0000       0.051445         1.3999 
  70   0.0000       0.055916         1.5216 
  71   0.0000       0.086954         2.3661 
  72   0.0000       0.110218         2.9992 
  73   0.0000       0.196050         5.3348 
  74   0.0000       0.222979         6.0676 
  75   0.0000       0.257854         7.0166 
  76   0.0000       0.277337         7.5467 
  77   0.0000       0.293369         7.9830 
  78   0.0000       0.310127         8.4390 
  79   0.0000       0.326620         8.8878 
  80   0.0000       0.349079         9.4989 
  81   0.0000       0.351766         9.5720 
  82   0.0000       0.366680         9.9779 
  83   0.0000       0.386551        10.5186 
  84   0.0000       0.389781        10.6065 
  85   0.0000       0.394732        10.7412 
  86   0.0000       0.398375        10.8403 
  87   0.0000       0.405586        11.0365 
  88   0.0000       0.412751        11.2315 
  89   0.0000       0.418070        11.3763 
  90   0.0000       0.426976        11.6186 
  91   0.0000       0.432781        11.7766 
  92   0.0000       0.444323        12.0906 
  93   0.0000       0.454311        12.3624 
  94   0.0000       0.475163        12.9298 
  95   0.0000       0.496406        13.5079 
  96   0.0000       0.523887        14.2557 
  97   0.0000       0.528831        14.3902 
  98   0.0000       0.536719        14.6049 
  99   0.0000       0.540703        14.7133 
 100   0.0000       0.549003        14.9391 
 101   0.0000       0.553495        15.0614 
 102   0.0000       0.588173        16.0050 
 103   0.0000       0.618968        16.8430 
 104   0.0000       0.634470        17.2648 
 105   0.0000       0.704100        19.1595 
 106   0.0000       0.716131        19.4869 
 107   0.0000       0.745977        20.2991 
 108   0.0000       0.751934        20.4612 

                    ********************************
                    * MULLIKEN POPULATION ANALYSIS *
                    ********************************

-----------------------
MULLIKEN ATOMIC CHARGES
-----------------------
   0 H :    0.099673
   1 C :   -0.096983
   2 C :   -0.243328
   3 C :    0.205712
   4 O :   -0.236455
   5 O :   -0.224322
   6 C :    0.000277
   7 C :   -0.088503
   8 C :   -0.029061
   9 C :   -0.089277
  10 C :   -0.094028
  11 C :   -0.090311
  12 C :    0.133435
  13 O :   -0.185919
  14 C :   -0.027309
  15 C :   -0.085996
  16 C :   -0.091281
  17 C :   -0.088776
  18 C :   -0.091364
  19 C :   -0.086131
  20 H :    0.086738
  21 H :    0.092535
  22 H :    0.090906
  23 H :    0.256538
  24 H :    0.100416
  25 H :    0.097250
  26 H :    0.096467
  27 H :    0.094770
  28 H :    0.099593
  29 H :    0.097899
  30 H :    0.098227
  31 H :    0.097708
  32 H :    0.100900
Sum of atomic charges:   -0.0000000

--------------------------------
MULLIKEN REDUCED ORBITAL CHARGES
--------------------------------
  0 H s       :     0.900327  s :     0.900327
  1 C s       :     3.178304  s :     3.178304
      pz      :     0.974456  p :     2.918680
      px      :     1.000992
      py      :     0.943232
  2 C s       :     3.197625  s :     3.197625
      pz      :     0.997863  p :     3.045703
      px      :     1.008041
      py      :     1.039799
  3 C s       :     3.081737  s :     3.081737
      pz      :     0.854665  p :     2.712550
      px      :     0.974848
      py      :     0.883038
  4 O s       :     3.817574  s :     3.817574
      pz      :     1.284635  p :     4.418881
      px      :     1.648154
      py      :     1.486092
  5 O s       :     3.885313  s :     3.885313
      pz      :     1.287690  p :     4.339009
      px      :     1.334568
      py      :     1.716750
  6 C s       :     3.139527  s :     3.139527
      pz      :     0.963664  p :     2.860196
      px      :     0.967162
      py      :     0.929371
  7 C s       :     3.154663  s :     3.154663
      pz      :     0.977127  p :     2.933840
      px      :     0.984421
      py      :     0.972292
  8 C s       :     3.133411  s :     3.133411
      pz      :     0.963743  p :     2.895650
      px      :     0.981499
      py      :     0.950409
  9 C s       :     3.148488  s :     3.148488
      pz      :     0.971892  p :     2.940789
      px      :     0.980084
      py      :     0.988812
 10 C s       :     3.146251  s :     3.146251
      pz      :     0.978625  p :     2.947778
      px      :     0.991102
      py      :     0.978051
 11 C s       :     3.151950  s :     3.151950
      pz      :     0.993923  p :     2.938361
      px      :     0.994425
      py      :     0.950013
 12 C s       :     3.119449  s :     3.119449
      pz      :     0.963670  p :     2.747116
      px      :     0.922416
      py      :     0.861030
 13 O s       :     3.888412  s :     3.888412
      pz      :     1.711869  p :     4.297507
      px      :     1.273851
      py      :     1.311787
 14 C s       :     3.132928  s :     3.132928
      pz      :     0.967483  p :     2.894382
      px      :     0.960823
      py      :     0.966076
 15 C s       :     3.151094  s :     3.151094
      pz      :     0.964094  p :     2.934901
      px      :     0.982987
      py      :     0.987820
 16 C s       :     3.147130  s :     3.147130
      pz      :     0.983378  p :     2.944151
      px      :     0.992320
      py      :     0.968453
 17 C s       :     3.147597  s :     3.147597
      pz      :     0.992875  p :     2.941179
      px      :     0.960012
      py      :     0.988292
 18 C s       :     3.145434  s :     3.145434
      pz      :     0.973232  p :     2.945930
      px      :     0.983531
      py      :     0.989166
 19 C s       :     3.150471  s :     3.150471
      pz      :     0.983196  p :     2.935660
      px      :     0.993898
      py      :     0.958566
 20 H s       :     0.913262  s :     0.913262
 21 H s       :     0.907465  s :     0.907465
 22 H s       :     0.909094  s :     0.909094
 23 H s       :     0.743462  s :     0.743462
 24 H s       :     0.899584  s :     0.899584
 25 H s       :     0.902750  s :     0.902750
 26 H s       :     0.903533  s :     0.903533
 27 H s       :     0.905230  s :     0.905230
 28 H s       :     0.900407  s :     0.900407
 29 H s       :     0.902101  s :     0.902101
 30 H s       :     0.901773  s :     0.901773
 31 H s       :     0.902292  s :     0.902292
 32 H s       :     0.899100  s :     0.899100


                     *******************************
                     * LOEWDIN POPULATION ANALYSIS *
                     *******************************

----------------------
LOEWDIN ATOMIC CHARGES
----------------------
   0 H :    0.058646
   1 C :   -0.058493
   2 C :   -0.134476
   3 C :    0.123291
   4 O :   -0.128490
   5 O :   -0.173282
   6 C :    0.006072
   7 C :   -0.052711
   8 C :   -0.033659
   9 C :   -0.050200
  10 C :   -0.053956
  11 C :   -0.052986
  12 C :    0.095282
  13 O :   -0.128594
  14 C :   -0.031614
  15 C :   -0.046187
  16 C :   -0.050921
  17 C :   -0.046321
  18 C :   -0.051119
  19 C :   -0.046184
  20 H :    0.049832
  21 H :    0.053928
  22 H :    0.052344
  23 H :    0.188471
  24 H :    0.059087
  25 H :    0.056045
  26 H :    0.055509
  27 H :    0.054156
  28 H :    0.057768
  29 H :    0.056468
  30 H :    0.056692
  31 H :    0.056359
  32 H :    0.059242

-------------------------------
LOEWDIN REDUCED ORBITAL CHARGES
-------------------------------
  0 H s       :     0.941354  s :     0.941354
  1 C s       :     3.035325  s :     3.035325
      pz      :     1.013387  p :     3.023168
      px      :     1.022310
      py      :     0.987470
  2 C s       :     3.015557  s :     3.015557
      pz      :     1.025151  p :     3.118919
      px      :     1.034733
      py      :     1.059035
  3 C s       :     3.045807  s :     3.045807
      pz      :     0.923746  p :     2.830902
      px      :     0.983361
      py      :     0.923795
  4 O s       :     3.671818  s :     3.671818
      pz      :     1.296314  p :     4.456673
      px      :     1.652313
      py      :     1.508046
  5 O s       :     3.769110  s :     3.769110
      pz      :     1.339421  p :     4.404172
      px      :     1.339986
      py      :     1.724764
  6 C s       :     3.034849  s :     3.034849
      pz      :     0.992750  p :     2.959079
      px      :     0.990334
      py      :     0.975995
  7 C s       :     3.032512  s :     3.032512
      pz      :     1.005577  p :     3.020199
      px      :     1.003091
      py      :     1.011531
  8 C s       :     3.032736  s :     3.032736
      pz      :     0.998701  p :     3.000923
      px      :     1.000738
      py      :     1.001484
  9 C s       :     3.024609  s :     3.024609
      pz      :     1.004031  p :     3.025590
      px      :     1.001617
      py      :     1.019942
 10 C s       :     3.021426  s :     3.021426
      pz      :     1.007675  p :     3.032530
      px      :     1.007724
      py      :     1.017131
 11 C s       :     3.029233  s :     3.029233
      pz      :     1.011283  p :     3.023753
      px      :     1.006825
      py      :     1.005645
 12 C s       :     3.050309  s :     3.050309
      pz      :     0.988877  p :     2.854410
      px      :     0.943574
      py      :     0.921959
 13 O s       :     3.772782  s :     3.772782
      pz      :     1.718409  p :     4.355812
      px      :     1.286494
      py      :     1.350909
 14 C s       :     3.032051  s :     3.032051
      pz      :     1.000134  p :     2.999563
      px      :     1.002739
      py      :     0.996690
 15 C s       :     3.026977  s :     3.026977
      pz      :     0.996555  p :     3.019210
      px      :     1.013910
      py      :     1.008745
 16 C s       :     3.022241  s :     3.022241
      pz      :     1.006853  p :     3.028679
      px      :     1.017961
      py      :     1.003866
 17 C s       :     3.021930  s :     3.021930
      pz      :     1.009496  p :     3.024390
      px      :     1.004941
      py      :     1.009954
 18 C s       :     3.020524  s :     3.020524
      pz      :     1.003756  p :     3.030594
      px      :     1.015359
      py      :     1.011479
 19 C s       :     3.026171  s :     3.026171
      pz      :     1.007165  p :     3.020013
      px      :     1.019945
      py      :     0.992903
 20 H s       :     0.950168  s :     0.950168
 21 H s       :     0.946072  s :     0.946072
 22 H s       :     0.947656  s :     0.947656
 23 H s       :     0.811529  s :     0.811529
 24 H s       :     0.940913  s :     0.940913
 25 H s       :     0.943955  s :     0.943955
 26 H s       :     0.944491  s :     0.944491
 27 H s       :     0.945844  s :     0.945844
 28 H s       :     0.942232  s :     0.942232
 29 H s       :     0.943532  s :     0.943532
 30 H s       :     0.943308  s :     0.943308
 31 H s       :     0.943641  s :     0.943641
 32 H s       :     0.940758  s :     0.940758


                      *****************************
                      * MAYER POPULATION ANALYSIS *
                      *****************************

  NA   - Mulliken gross atomic population
  ZA   - Total nuclear charge
  QA   - Mulliken gross atomic charge
  VA   - Mayer's total valence
  BVA  - Mayer's bonded valence
  FA   - Mayer's free valence

  ATOM       NA         ZA         QA         VA         BVA        FA
  0 H      0.9003     1.0000     0.0997     0.9901     0.9901    -0.0000
  1 C      6.0970     6.0000    -0.0970     3.9611     3.9611     0.0000
  2 C      6.2433     6.0000    -0.2433     3.9500     3.9500    -0.0000
  3 C      5.7943     6.0000     0.2057     3.9178     3.9178    -0.0000
  4 O      8.2365     8.0000    -0.2365     2.3266     2.3266    -0.0000
  5 O      8.2243     8.0000    -0.2243     2.2926     2.2926    -0.0000
  6 C      5.9997     6.0000     0.0003     3.9718     3.9718     0.0000
  7 C      6.0885     6.0000    -0.0885     3.9657     3.9657    -0.0000
  8 C      6.0291     6.0000    -0.0291     3.9754     3.9754     0.0000
  9 C      6.0893     6.0000    -0.0893     3.9687     3.9687    -0.0000
 10 C      6.0940     6.0000    -0.0940     3.9702     3.9702     0.0000
 11 C      6.0903     6.0000    -0.0903     3.9683     3.9683    -0.0000
 12 C      5.8666     6.0000     0.1334     3.9278     3.9278    -0.0000
 13 O      8.1859     8.0000    -0.1859     2.2269     2.2269     0.0000
 14 C      6.0273     6.0000    -0.0273     3.9758     3.9758    -0.0000
 15 C      6.0860     6.0000    -0.0860     3.9676     3.9676    -0.0000
 16 C      6.0913     6.0000    -0.0913     3.9697     3.9697     0.0000
 17 C      6.0888     6.0000    -0.0888     3.9700     3.9700     0.0000
 18 C      6.0914     6.0000    -0.0914     3.9704     3.9704     0.0000
 19 C      6.0861     6.0000    -0.0861     3.9679     3.9679     0.0000
 20 H      0.9133     1.0000     0.0867     0.9925     0.9925    -0.0000
 21 H      0.9075     1.0000     0.0925     0.9914     0.9914    -0.0000
 22 H      0.9091     1.0000     0.0909     0.9917     0.9917     0.0000
 23 H      0.7435     1.0000     0.2565     0.9342     0.9342    -0.0000
 24 H      0.8996     1.0000     0.1004     0.9899     0.9899     0.0000
 25 H      0.9027     1.0000     0.0973     0.9905     0.9905     0.0000
 26 H      0.9035     1.0000     0.0965     0.9907     0.9907     0.0000
 27 H      0.9052     1.0000     0.0948     0.9910     0.9910     0.0000
 28 H      0.9004     1.0000     0.0996     0.9901     0.9901    -0.0000
 29 H      0.9021     1.0000     0.0979     0.9904     0.9904    -0.0000
 30 H      0.9018     1.0000     0.0982     0.9904     0.9904    -0.0000
 31 H      0.9023     1.0000     0.0977     0.9905     0.9905    -0.0000
 32 H      0.8991     1.0000     0.1009     0.9898     0.9898     0.0000

  Mayer bond orders larger than 0.100000
B(  0-H ,  1-C ) :   0.9415 B(  1-C ,  2-C ) :   0.9770 B(  1-C ,  3-C ) :   0.8944 
B(  1-C ,  6-C ) :   0.9829 B(  2-C , 20-H ) :   0.9692 B(  2-C , 21-H ) :   0.9712 
B(  2-C , 22-H ) :   0.9736 B(  3-C ,  4-O ) :   1.0973 B(  3-C ,  5-O ) :   1.8745 
B(  4-O ,  5-O ) :   0.2669 B(  4-O , 23-H ) :   0.8852 B(  6-C ,  7-C ) :   1.4121 
B(  6-C ,  9-C ) :   0.1081 B(  6-C , 11-C ) :   1.3975 B(  7-C ,  8-C ) :   1.3792 
B(  7-C , 10-C ) :   0.1080 B(  7-C , 24-H ) :   0.9505 B(  8-C ,  9-C ) :   1.3844 
B(  8-C , 11-C ) :   0.1044 B(  8-C , 12-C ) :   0.9782 B(  9-C , 10-C ) :   1.4381 
B(  9-C , 25-H ) :   0.9538 B( 10-C , 11-C ) :   1.4309 B( 10-C , 26-H ) :   0.9578 
B( 11-C , 27-H ) :   0.9563 B( 12-C , 13-O ) :   1.8906 B( 12-C , 14-C ) :   0.9785 
B( 14-C , 15-C ) :   1.3834 B( 14-C , 17-C ) :   0.1058 B( 14-C , 19-C ) :   1.3811 
B( 15-C , 16-C ) :   1.4428 B( 15-C , 18-C ) :   0.1121 B( 15-C , 28-H ) :   0.9534 
B( 16-C , 17-C ) :   1.4246 B( 16-C , 19-C ) :   0.1117 B( 16-C , 29-H ) :   0.9578 
B( 17-C , 18-C ) :   1.4283 B( 17-C , 30-H ) :   0.9580 B( 18-C , 19-C ) :   1.4402 
B( 18-C , 31-H ) :   0.9577 B( 19-C , 32-H ) :   0.9531 

-------
TIMINGS
-------

Total SCF time: 0 days 0 hours 0 min 14 sec 

Total time                  ....      14.750 sec
Sum of individual times     ....      14.615 sec  ( 99.1%)

Fock matrix formation       ....      13.301 sec  ( 90.2%)
  Split-RI-J                ....       3.486 sec  ( 26.2% of F)
  XC integration            ....       4.282 sec  ( 32.2% of F)
    Basis function eval.    ....       1.998 sec  ( 46.7% of XC)
    Density eval.           ....       1.088 sec  ( 25.4% of XC)
    XC-Functional eval.     ....       0.475 sec  ( 11.1% of XC)
    XC-Potential eval.      ....       0.422 sec  (  9.9% of XC)
Diagonalization             ....       0.006 sec  (  0.0%)
Density matrix formation    ....       0.003 sec  (  0.0%)
Population analysis         ....       0.014 sec  (  0.1%)
Initial guess               ....       0.186 sec  (  1.3%)
Orbital Transformation      ....       0.000 sec  (  0.0%)
Orbital Orthonormalization  ....       0.000 sec  (  0.0%)
DIIS solution               ....       0.006 sec  (  0.0%)
SOSCF solution              ....       0.014 sec  (  0.1%)
Grid generation             ....       1.085 sec  (  7.4%)

Maximum memory used throughout the entire SCF-calculation: 77.0 MB

-------------------------   --------------------
FINAL SINGLE POINT ENERGY      -832.134378223440
-------------------------   --------------------

------------------------------------------------------------------------------
                         ORCA SCF GRADIENT CALCULATION
------------------------------------------------------------------------------

Gradient of the Kohn-Sham DFT energy:
Kohn-Sham wavefunction type      ... RKS
Hartree-Fock exchange scaling    ...    0.000
Number of operators              ...    1
Number of atoms                  ...   33
Basis set dimensions             ...  109
Integral neglect threshold       ... 2.5e-11
Integral primitive cutoff        ... 2.5e-12
SHARK Integral package           ... ON

Nuc. rep. gradient       (SHARK) ... done (  0.0 sec)
HCore & Overlap gradient (SHARK) ... done (  0.1 sec)
RI-J gradient            (SHARK) ... done (  0.8 sec)
Exchange-correlation gradient    ... done

------------------
CARTESIAN GRADIENT
------------------

   1   H   :    0.007935462   -0.003236439   -0.009638535
   2   C   :    0.007057127   -0.020998567   -0.015776234
   3   C   :   -0.012886346    0.006489971   -0.014717889
   4   C   :   -0.002021762   -0.025199648   -0.032979164
   5   O   :    0.012593965    0.071004897    0.051854793
   6   O   :   -0.015852751   -0.000722438    0.070681579
   7   C   :   -0.002326059    0.001684561    0.001568999
   8   C   :    0.003703520    0.005827567    0.000870740
   9   C   :    0.008625159    0.017576646   -0.006004530
  10   C   :    0.003722291   -0.009233672   -0.003179715
  11   C   :    0.001026920   -0.003016651   -0.003842865
  12   C   :    0.005269907   -0.002101170   -0.003467115
  13   C   :    0.013834509    0.029385823   -0.001965988
  14   O   :   -0.043110671   -0.079933769    0.006185730
  15   C   :    0.007293907    0.013373380   -0.000426397
  16   C   :   -0.007494010    0.001753831    0.006936142
  17   C   :   -0.006101802   -0.004145358    0.001663320
  18   C   :   -0.003228851    0.007201011    0.008089111
  19   C   :    0.008500287    0.003984608    0.000556332
  20   C   :    0.006195697    0.006634365   -0.001235311
  21   H   :    0.002852753    0.007987838   -0.003483463
  22   H   :   -0.000039005   -0.006753709   -0.005227049
  23   H   :   -0.007763830   -0.000542772    0.004707568
  24   H   :    0.007175036   -0.017284594   -0.054769903
  25   H   :   -0.003847166    0.010216531    0.006800836
  26   H   :   -0.003297355   -0.010856213    0.006820369
  27   H   :    0.006381043   -0.009820848   -0.006452483
  28   H   :    0.008890496    0.004903147   -0.009380547
  29   H   :   -0.008287264   -0.009779935   -0.005227365
  30   H   :   -0.011480181   -0.000151710    0.007506284
  31   H   :   -0.002181233    0.009106058    0.009835019
  32   H   :    0.009629889    0.008563357    0.003768210
  33   H   :    0.009230314   -0.001916099   -0.010070481

Difference to translation invariance:
           :    0.0000000000   -0.0000000000   -0.0000000000

Difference to rotation invariance:
           :   -0.0003718794   -0.0001429627    0.0003546778

Norm of the cartesian gradient     ...    0.1792434543
RMS gradient                       ...    0.0180146450
MAX gradient                       ...    0.0799337692

-------
TIMINGS
-------

Total SCF gradient time            ...        5.086 sec

One electron gradient       ....       0.111 sec  (  2.2%)
RI-J Coulomb gradient       ....       0.797 sec  ( 15.7%)
XC gradient                 ....       3.508 sec  ( 69.0%)
CPCM gradient               ....       0.382 sec  (  7.5%)
   A-Matrix (El+Nuc)        ....       0.070 sec  (  1.4%)
   Potential                ....       0.312 sec  (  6.1%)

Maximum memory used throughout the entire SCFGRAD-calculation: 35.2 MB
------------------------------------------------------------------------------
                         ORCA GEOMETRY RELAXATION STEP
------------------------------------------------------------------------------

Reading the OPT-File                    .... done
Getting information on internals        .... done
Copying old internal coords+grads       .... done
Making the new internal coordinates     .... (new redundants).... done
Validating the new internal coordinates .... (new redundants).... done
Calculating the B-matrix                .... done
Calculating the G,G- and P matrices     .... done
Transforming gradient to internals      .... done
Projecting the internal gradient        .... done
Number of atoms                         ....  33
Number of internal coordinates          .... 168
Current Energy                          ....  -832.134378223 Eh
Current gradient norm                   ....     0.179243454 Eh/bohr
Maximum allowed component of the step   ....  0.300
Current trust radius                    ....  0.300
Evaluating the initial hessian          ....  (Almloef) done
Projecting the Hessian                  .... done
Forming the augmented Hessian           .... done
Diagonalizing the augmented Hessian     .... done
Last element of RFO vector              ....  0.948985465
Lowest eigenvalues of augmented Hessian:
 -0.054118963  0.010350938  0.010694548  0.011287494  0.012611816
Length of the computed step             ....  0.332270441
Warning: the length of the step is outside the trust region - taking restricted step instead
The input lambda is                     ....    -0.054119
   iter:   1  x=   -0.078815  g=    0.826198 f(x)=     0.020404
[...]
  58   2.0000      -0.233118        -6.3435 
  59   2.0000      -0.215827        -5.8730 
  60   2.0000      -0.168534        -4.5860 
  61   2.0000      -0.166791        -4.5386 
  62   2.0000      -0.159950        -4.3525 
  63   2.0000      -0.157779        -4.2934 
  64   2.0000      -0.133591        -3.6352 
  65   2.0000      -0.095557        -2.6002 
  66   2.0000      -0.091513        -2.4902 
  67   0.0000      -0.004652        -0.1266 
  68   0.0000       0.047064         1.2807 
  69   0.0000       0.048484         1.3193 
  70   0.0000       0.051801         1.4096 
  71   0.0000       0.070561         1.9201 
  72   0.0000       0.099146         2.6979 
  73   0.0000       0.187539         5.1032 
  74   0.0000       0.207093         5.6353 
  75   0.0000       0.229926         6.2566 
  76   0.0000       0.251872         6.8538 
  77   0.0000       0.260032         7.0758 
  78   0.0000       0.284870         7.7517 
  79   0.0000       0.308388         8.3917 
  80   0.0000       0.325836         8.8664 
  81   0.0000       0.333005         9.0615 
  82   0.0000       0.343429         9.3452 
  83   0.0000       0.352027         9.5791 
  84   0.0000       0.365958         9.9582 
  85   0.0000       0.368590        10.0298 
  86   0.0000       0.375597        10.2205 
  87   0.0000       0.376440        10.2434 
  88   0.0000       0.380890        10.3645 
  89   0.0000       0.390108        10.6154 
  90   0.0000       0.393482        10.7072 
  91   0.0000       0.407102        11.0778 
  92   0.0000       0.415796        11.3144 
  93   0.0000       0.429883        11.6977 
  94   0.0000       0.440271        11.9804 
  95   0.0000       0.460424        12.5288 
  96   0.0000       0.497610        13.5407 
  97   0.0000       0.503426        13.6989 
  98   0.0000       0.519044        14.1239 
  99   0.0000       0.521272        14.1845 
 100   0.0000       0.525851        14.3091 
 101   0.0000       0.530908        14.4467 
 102   0.0000       0.555797        15.1240 
 103   0.0000       0.561027        15.2663 
 104   0.0000       0.582671        15.8553 
 105   0.0000       0.674918        18.3655 
 106   0.0000       0.683490        18.5987 
 107   0.0000       0.712332        19.3835 
 108   0.0000       0.715461        19.4687 

                    ********************************
                    * MULLIKEN POPULATION ANALYSIS *
                    ********************************

-----------------------
MULLIKEN ATOMIC CHARGES
-----------------------
   0 H :    0.094206
   1 C :   -0.084605
   2 C :   -0.234491
   3 C :    0.169538
   4 O :   -0.196809
   5 O :   -0.207169
   6 C :   -0.003216
   7 C :   -0.086391
   8 C :   -0.028241
   9 C :   -0.086672
  10 C :   -0.091275
  11 C :   -0.087438
  12 C :    0.120947
  13 O :   -0.172327
  14 C :   -0.026795
  15 C :   -0.084239
  16 C :   -0.089471
  17 C :   -0.084873
  18 C :   -0.088885
  19 C :   -0.086491
  20 H :    0.087620
  21 H :    0.090131
  22 H :    0.089046
  23 H :    0.223535
  24 H :    0.097558
  25 H :    0.094806
  26 H :    0.095032
  27 H :    0.093932
  28 H :    0.095887
  29 H :    0.095868
  30 H :    0.096263
  31 H :    0.095700
  32 H :    0.099320
Sum of atomic charges:   -0.0000000

--------------------------------
MULLIKEN REDUCED ORBITAL CHARGES
--------------------------------
  0 H s       :     0.905794  s :     0.905794
  1 C s       :     3.206856  s :     3.206856
      pz      :     0.971590  p :     2.877749
      px      :     0.973033
      py      :     0.933126
  2 C s       :     3.209866  s :     3.209866
      pz      :     1.031727  p :     3.024625
      px      :     0.968183
      py      :     1.024715
  3 C s       :     3.156930  s :     3.156930
      pz      :     0.839452  p :     2.673532
      px      :     0.950086
      py      :     0.883993
  4 O s       :     3.874521  s :     3.874521
      pz      :     1.201105  p :     4.322288
      px      :     1.656644
      py      :     1.464540
  5 O s       :     3.896331  s :     3.896331
      pz      :     1.260857  p :     4.310839
      px      :     1.411574
      py      :     1.638407
  6 C s       :     3.151804  s :     3.151804
      pz      :     0.958184  p :     2.851412
      px      :     0.969848
      py      :     0.923381
  7 C s       :     3.165945  s :     3.165945
      pz      :     0.967320  p :     2.920446
      px      :     0.986354
      py      :     0.966772
  8 C s       :     3.159430  s :     3.159430
      pz      :     0.958546  p :     2.868811
      px      :     0.969262
      py      :     0.941003
  9 C s       :     3.164435  s :     3.164435
      pz      :     0.964679  p :     2.922237
      px      :     0.976733
      py      :     0.980825
 10 C s       :     3.160060  s :     3.160060
      pz      :     0.971417  p :     2.931215
      px      :     0.989373
      py      :     0.970425
 11 C s       :     3.165272  s :     3.165272
      pz      :     0.990499  p :     2.922166
      px      :     0.988073
      py      :     0.943594
 12 C s       :     3.169395  s :     3.169395
      pz      :     0.945464  p :     2.709658
      px      :     0.914112
      py      :     0.850082
 13 O s       :     3.901946  s :     3.901946
      pz      :     1.652502  p :     4.270381
      px      :     1.316694
      py      :     1.301185
 14 C s       :     3.161058  s :     3.161058
      pz      :     0.964437  p :     2.865737
      px      :     0.951527
      py      :     0.949773
 15 C s       :     3.165656  s :     3.165656
      pz      :     0.959391  p :     2.918583
      px      :     0.975804
      py      :     0.983388
 16 C s       :     3.160904  s :     3.160904
      pz      :     0.978612  p :     2.928567
      px      :     0.986659
      py      :     0.963297
 17 C s       :     3.164249  s :     3.164249
      pz      :     0.986993  p :     2.920624
      px      :     0.952834
      py      :     0.980797
 18 C s       :     3.161223  s :     3.161223
      pz      :     0.967752  p :     2.927662
      px      :     0.974465
      py      :     0.985445
 19 C s       :     3.166723  s :     3.166723
      pz      :     0.976983  p :     2.919768
      px      :     0.988600
      py      :     0.954186
 20 H s       :     0.912380  s :     0.912380
 21 H s       :     0.909869  s :     0.909869
 22 H s       :     0.910954  s :     0.910954
 23 H s       :     0.776465  s :     0.776465
 24 H s       :     0.902442  s :     0.902442
 25 H s       :     0.905194  s :     0.905194
 26 H s       :     0.904968  s :     0.904968
 27 H s       :     0.906068  s :     0.906068
 28 H s       :     0.904113  s :     0.904113
 29 H s       :     0.904132  s :     0.904132
 30 H s       :     0.903737  s :     0.903737
 31 H s       :     0.904300  s :     0.904300
 32 H s       :     0.900680  s :     0.900680


                     *******************************
                     * LOEWDIN POPULATION ANALYSIS *
                     *******************************

----------------------
LOEWDIN ATOMIC CHARGES
----------------------
   0 H :    0.054124
   1 C :   -0.045517
   2 C :   -0.128369
   3 C :    0.101647
   4 O :   -0.114104
   5 O :   -0.160215
   6 C :    0.001666
   7 C :   -0.051812
   8 C :   -0.032169
   9 C :   -0.048763
  10 C :   -0.052391
  11 C :   -0.050750
  12 C :    0.089449
  13 O :   -0.124085
  14 C :   -0.030818
  15 C :   -0.045669
  16 C :   -0.050359
  17 C :   -0.043948
  18 C :   -0.050089
  19 C :   -0.047598
  20 H :    0.050718
  21 H :    0.052586
  22 H :    0.051663
  23 H :    0.169230
  24 H :    0.058105
  25 H :    0.054982
  26 H :    0.055356
  27 H :    0.054486
  28 H :    0.055748
  29 H :    0.055901
  30 H :    0.056111
  31 H :    0.055739
  32 H :    0.059145

-------------------------------
LOEWDIN REDUCED ORBITAL CHARGES
-------------------------------
  0 H s       :     0.945876  s :     0.945876
  1 C s       :     3.068001  s :     3.068001
      pz      :     1.001723  p :     2.977516
      px      :     1.001471
      py      :     0.974321
  2 C s       :     3.031092  s :     3.031092
      pz      :     1.051468  p :     3.097277
      px      :     1.000187
      py      :     1.045622
  3 C s       :     3.115781  s :     3.115781
      pz      :     0.906972  p :     2.782572
      px      :     0.960636
      py      :     0.914964
  4 O s       :     3.756640  s :     3.756640
      pz      :     1.214202  p :     4.357463
      px      :     1.662080
      py      :     1.481182
  5 O s       :     3.792487  s :     3.792487
      pz      :     1.309474  p :     4.367727
      px      :     1.414144
      py      :     1.644110
  6 C s       :     3.048451  s :     3.048451
      pz      :     0.990111  p :     2.949883
      px      :     0.990860
      py      :     0.968911
  7 C s       :     3.045378  s :     3.045378
      pz      :     0.998663  p :     3.006434
      px      :     1.002455
      py      :     1.005316
  8 C s       :     3.059755  s :     3.059755
      pz      :     0.990617  p :     2.972414
      px      :     0.989353
      py      :     0.992444
  9 C s       :     3.042237  s :     3.042237
      pz      :     0.996204  p :     3.006526
      px      :     0.998124
      py      :     1.012198
 10 C s       :     3.036728  s :     3.036728
      pz      :     1.001671  p :     3.015664
      px      :     1.005191
      py      :     1.008802
 11 C s       :     3.043570  s :     3.043570
      pz      :     1.008308  p :     3.007179
      px      :     1.001221
      py      :     0.997650
 12 C s       :     3.099409  s :     3.099409
      pz      :     0.968696  p :     2.811143
      px      :     0.934361
      py      :     0.908086
 13 O s       :     3.801942  s :     3.801942
      pz      :     1.657399  p :     4.322142
      px      :     1.327007
      py      :     1.337737
 14 C s       :     3.061461  s :     3.061461
      pz      :     0.992838  p :     2.969358
      px      :     0.993610
      py      :     0.982909
 15 C s       :     3.043287  s :     3.043287
      pz      :     0.989781  p :     3.002383
      px      :     1.007994
      py      :     1.004607
 16 C s       :     3.037489  s :     3.037489
      pz      :     1.002442  p :     3.012870
      px      :     1.011800
      py      :     0.998629
 17 C s       :     3.040326  s :     3.040326
      pz      :     1.003503  p :     3.003623
      px      :     0.997006
      py      :     1.003113
 18 C s       :     3.038033  s :     3.038033
      pz      :     0.998196  p :     3.012055
      px      :     1.006991
      py      :     1.006868
 19 C s       :     3.043990  s :     3.043990
      pz      :     1.000598  p :     3.003608
      px      :     1.014100
      py      :     0.988910
 20 H s       :     0.949282  s :     0.949282
 21 H s       :     0.947414  s :     0.947414
 22 H s       :     0.948337  s :     0.948337
 23 H s       :     0.830770  s :     0.830770
 24 H s       :     0.941895  s :     0.941895
 25 H s       :     0.945018  s :     0.945018
 26 H s       :     0.944644  s :     0.944644
 27 H s       :     0.945514  s :     0.945514
 28 H s       :     0.944252  s :     0.944252
 29 H s       :     0.944099  s :     0.944099
 30 H s       :     0.943889  s :     0.943889
 31 H s       :     0.944261  s :     0.944261
 32 H s       :     0.940855  s :     0.940855


                      *****************************
                      * MAYER POPULATION ANALYSIS *
                      *****************************

  NA   - Mulliken gross atomic population
  ZA   - Total nuclear charge
  QA   - Mulliken gross atomic charge
  VA   - Mayer's total valence
  BVA  - Mayer's bonded valence
  FA   - Mayer's free valence

  ATOM       NA         ZA         QA         VA         BVA        FA
  0 H      0.9058     1.0000     0.0942     0.9911     0.9911    -0.0000
  1 C      6.0846     6.0000    -0.0846     3.9474     3.9474    -0.0000
  2 C      6.2345     6.0000    -0.2345     3.9459     3.9459    -0.0000
  3 C      5.8305     6.0000     0.1695     3.8964     3.8964    -0.0000
  4 O      8.1968     8.0000    -0.1968     2.3335     2.3335     0.0000
  5 O      8.2072     8.0000    -0.2072     2.3007     2.3007    -0.0000
  6 C      6.0032     6.0000    -0.0032     3.9666     3.9666    -0.0000
  7 C      6.0864     6.0000    -0.0864     3.9620     3.9620     0.0000
  8 C      6.0282     6.0000    -0.0282     3.9646     3.9646     0.0000
  9 C      6.0867     6.0000    -0.0867     3.9631     3.9631     0.0000
 10 C      6.0913     6.0000    -0.0913     3.9651     3.9651    -0.0000
 11 C      6.0874     6.0000    -0.0874     3.9631     3.9631     0.0000
 12 C      5.8791     6.0000     0.1209     3.9128     3.9128     0.0000
 13 O      8.1723     8.0000    -0.1723     2.2390     2.2390    -0.0000
 14 C      6.0268     6.0000    -0.0268     3.9640     3.9640     0.0000
 15 C      6.0842     6.0000    -0.0842     3.9626     3.9626     0.0000
 16 C      6.0895     6.0000    -0.0895     3.9647     3.9647    -0.0000
 17 C      6.0849     6.0000    -0.0849     3.9639     3.9639     0.0000
 18 C      6.0889     6.0000    -0.0889     3.9646     3.9646     0.0000
 19 C      6.0865     6.0000    -0.0865     3.9619     3.9619     0.0000
 20 H      0.9124     1.0000     0.0876     0.9923     0.9923     0.0000
 21 H      0.9099     1.0000     0.0901     0.9919     0.9919    -0.0000
 22 H      0.9110     1.0000     0.0890     0.9921     0.9921     0.0000
 23 H      0.7765     1.0000     0.2235     0.9500     0.9500    -0.0000
 24 H      0.9024     1.0000     0.0976     0.9905     0.9905    -0.0000
 25 H      0.9052     1.0000     0.0948     0.9910     0.9910     0.0000
 26 H      0.9050     1.0000     0.0950     0.9910     0.9910     0.0000
 27 H      0.9061     1.0000     0.0939     0.9912     0.9912    -0.0000
 28 H      0.9041     1.0000     0.0959     0.9908     0.9908    -0.0000
 29 H      0.9041     1.0000     0.0959     0.9908     0.9908     0.0000
 30 H      0.9037     1.0000     0.0963     0.9907     0.9907     0.0000
 31 H      0.9043     1.0000     0.0957     0.9908     0.9908    -0.0000
 32 H      0.9007     1.0000     0.0993     0.9901     0.9901    -0.0000

  Mayer bond orders larger than 0.100000
B(  0-H ,  1-C ) :   0.9465 B(  1-C ,  2-C ) :   0.9725 B(  1-C ,  3-C ) :   0.8673 
B(  1-C ,  6-C ) :   0.9848 B(  2-C , 20-H ) :   0.9716 B(  2-C , 21-H ) :   0.9717 
B(  2-C , 22-H ) :   0.9732 B(  3-C ,  4-O ) :   1.0771 B(  3-C ,  5-O ) :   1.8971 
B(  4-O ,  5-O ) :   0.2595 B(  4-O , 23-H ) :   0.9136 B(  6-C ,  7-C ) :   1.3969 
B(  6-C ,  9-C ) :   0.1075 B(  6-C , 11-C ) :   1.4012 B(  7-C ,  8-C ) :   1.3872 
B(  7-C , 10-C ) :   0.1061 B(  7-C , 24-H ) :   0.9493 B(  8-C ,  9-C ) :   1.3711 
B(  8-C , 11-C ) :   0.1035 B(  8-C , 12-C ) :   0.9618 B(  9-C , 10-C ) :   1.4439 
B(  9-C , 25-H ) :   0.9532 B( 10-C , 11-C ) :   1.4185 B( 10-C , 26-H ) :   0.9565 
B( 11-C , 27-H ) :   0.9551 B( 12-C , 13-O ) :   1.9005 B( 12-C , 14-C ) :   0.9616 
B( 14-C , 15-C ) :   1.3762 B( 14-C , 17-C ) :   0.1074 B( 14-C , 19-C ) :   1.3798 
B( 15-C , 16-C ) :   1.4452 B( 15-C , 18-C ) :   0.1108 B( 15-C , 28-H ) :   0.9526 
B( 16-C , 17-C ) :   1.4171 B( 16-C , 19-C ) :   0.1096 B( 16-C , 29-H ) :   0.9566 
B( 17-C , 18-C ) :   1.4247 B( 17-C , 30-H ) :   0.9572 B( 18-C , 19-C ) :   1.4358 
B( 18-C , 31-H ) :   0.9567 B( 19-C , 32-H ) :   0.9502 

-------
TIMINGS
-------

Total SCF time: 0 days 0 hours 0 min 9 sec 

Total time                  ....       9.617 sec
Sum of individual times     ....       9.467 sec  ( 98.4%)

Fock matrix formation       ....       8.591 sec  ( 89.3%)
  Split-RI-J                ....       2.180 sec  ( 25.4% of F)
  XC integration            ....       2.756 sec  ( 32.1% of F)
    Basis function eval.    ....       1.324 sec  ( 48.0% of XC)
    Density eval.           ....       0.710 sec  ( 25.8% of XC)
    XC-Functional eval.     ....       0.340 sec  ( 12.3% of XC)
    XC-Potential eval.      ....       0.179 sec  (  6.5% of XC)
Diagonalization             ....       0.000 sec  (  0.0%)
Density matrix formation    ....       0.002 sec  (  0.0%)
Population analysis         ....       0.009 sec  (  0.1%)
Initial guess               ....       0.002 sec  (  0.0%)
Orbital Transformation      ....       0.000 sec  (  0.0%)
Orbital Orthonormalization  ....       0.000 sec  (  0.0%)
DIIS solution               ....       0.000 sec  (  0.0%)
SOSCF solution              ....       0.006 sec  (  0.1%)
Grid generation             ....       0.857 sec  (  8.9%)

Maximum memory used throughout the entire SCF-calculation: 77.5 MB

-------------------------   --------------------
FINAL SINGLE POINT ENERGY      -832.171023882641
-------------------------   --------------------

                                *** OPTIMIZATION RUN DONE ***

                            ***************************************
                            *     ORCA property calculations      *
                            ***************************************

                                    ---------------------
                                    Active property flags
                                    ---------------------
   (+) Dipole Moment


------------------------------------------------------------------------------
                       ORCA ELECTRIC PROPERTIES CALCULATION
------------------------------------------------------------------------------

Dipole Moment Calculation                       ... on
Quadrupole Moment Calculation                   ... off
Polarizability Calculation                      ... off
GBWName                                         ... Dexketoprofen\Dexketoprofen_PBE_STO-3G\Dexketoprofen_PBE_STO-3G.orcainp.gbw
Electron density                                ... Dexketoprofen\Dexketoprofen_PBE_STO-3G\Dexketoprofen_PBE_STO-3G.orcainp.scfp
The origin for moment calculation is the CENTER OF MASS  = ( 6.274124,  2.704882 -4.662430)

-------------
DIPOLE MOMENT
-------------
                                X             Y             Z
Electronic contribution:     -1.61889       4.63243      -4.87249
Nuclear contribution   :      1.34880      -5.48253       6.34125
                        -----------------------------------------
Total Dipole Moment    :     -0.27009      -0.85010       1.46876
                        -----------------------------------------
Magnitude (a.u.)       :      1.71839
Magnitude (Debye)      :      4.36781



--------------------
Rotational spectrum 
--------------------
 
Rotational constants in cm-1:     0.016758     0.008758     0.006366 
Rotational constants in MHz :   502.389050   262.547838   190.843434 

 Dipole components along the rotational axes: 
x,y,z [a.u.] :     1.575725    -0.276857    -0.627147 
x,y,z [Debye]:     4.005174    -0.703714    -1.594082 

 

Timings for individual modules:

Sum of individual times         ...      196.703 sec (=   3.278 min)
GTO integral calculation        ...        1.359 sec (=   0.023 min)   0.7 %
SCF iterations                  ...      139.517 sec (=   2.325 min)  70.9 %
SCF Gradient evaluation         ...       55.042 sec (=   0.917 min)  28.0 %
Geometry relaxation             ...        0.785 sec (=   0.013 min)   0.4 %
                             ****ORCA TERMINATED NORMALLY****
TOTAL RUN TIME: 0 days 0 hours 3 minutes 17 seconds 643 msec
