
                                 *****************
                                 * O   R   C   A *
                                 *****************

                                            #,                                       
                                            ###                                      
                                            ####                                     
                                            #####                                    
                                            ######                                   
                                           ########,                                 
                                     ,,################,,,,,                         
                               ,,#################################,,                 
                          ,,##########################################,,             
                       ,#########################################, ''#####,          
                    ,#############################################,,   '####,        
                  ,##################################################,,,,####,       
                ,###########''''           ''''###############################       
              ,#####''   ,,,,##########,,,,          '''####'''          '####       
            ,##' ,,,,###########################,,,                        '##       
           ' ,,###''''                  '''############,,,                           
         ,,##''                                '''############,,,,        ,,,,,,###''
      ,#''                                            '''#######################'''  
     '                                                          ''''####''''         
             ,#######,   #######,   ,#######,      ##                                
            ,#'     '#,  ##    ##  ,#'     '#,    #''#        ######   ,####,        
            ##       ##  ##   ,#'  ##            #'  '#       #        #'  '#        
            ##       ##  #######   ##           ,######,      #####,   #    #        
            '#,     ,#'  ##    ##  '#,     ,#' ,#      #,         ##   #,  ,#        
             '#######'   ##     ##  '#######'  #'      '#     #####' # '####'        



                  #######################################################
                  #                        -***-                        #
                  #          Department of theory and spectroscopy      #
                  #    Directorship and core code : Frank Neese         #
                  #        Max Planck Institute fuer Kohlenforschung    #
                  #                Kaiser Wilhelm Platz 1               #
                  #                 D-45470 Muelheim/Ruhr               #
                  #                      Germany                        #
                  #                                                     #
                  #                  All rights reserved                #
                  #                        -***-                        #
                  #######################################################



                         Program Version 5.0.4 -  RELEASE  -

 With contributions from (in alphabetic order):
   Daniel Aravena         : Magnetic Suceptibility
   Michael Atanasov       : Ab Initio Ligand Field Theory (pilot matlab implementation)
   Alexander A. Auer      : GIAO ZORA, VPT2 properties, NMR spectrum
   Ute Becker             : Parallelization
   Giovanni Bistoni       : ED, misc. LED, open-shell LED, HFLD
   Martin Brehm           : Molecular dynamics
   Dmytro Bykov           : SCF Hessian
   Vijay G. Chilkuri      : MRCI spin determinant printing, contributions to CSF-ICE
   Dipayan Datta          : RHF DLPNO-CCSD density
   Achintya Kumar Dutta   : EOM-CC, STEOM-CC
   Dmitry Ganyushin       : Spin-Orbit,Spin-Spin,Magnetic field MRCI
   Miquel Garcia          : C-PCM and meta-GGA Hessian, CC/C-PCM, Gaussian charge scheme
   Yang Guo               : DLPNO-NEVPT2, F12-NEVPT2, CIM, IAO-localization
   Andreas Hansen         : Spin unrestricted coupled pair/coupled cluster methods
   Benjamin Helmich-Paris : MC-RPA, TRAH-SCF, COSX integrals
   Lee Huntington         : MR-EOM, pCC
   Robert Izsak           : Overlap fitted RIJCOSX, COSX-SCS-MP3, EOM
   Marcus Kettner         : VPT2
   Christian Kollmar      : KDIIS, OOCD, Brueckner-CCSD(T), CCSD density, CASPT2, CASPT2-K
   Simone Kossmann        : Meta GGA functionals, TD-DFT gradient, OOMP2, MP2 Hessian
   Martin Krupicka        : Initial AUTO-CI
   Lucas Lang             : DCDCAS
   Marvin Lechner         : AUTO-CI (C++ implementation), FIC-MRCC
   Dagmar Lenk            : GEPOL surface, SMD
   Dimitrios Liakos       : Extrapolation schemes; Compound Job, initial MDCI parallelization
   Dimitrios Manganas     : Further ROCIS development; embedding schemes
   Dimitrios Pantazis     : SARC Basis sets
   Anastasios Papadopoulos: AUTO-CI, single reference methods and gradients
   Taras Petrenko         : DFT Hessian,TD-DFT gradient, ASA, ECA, R-Raman, ABS, FL, XAS/XES, NRVS
   Peter Pinski           : DLPNO-MP2, DLPNO-MP2 Gradient
   Christoph Reimann      : Effective Core Potentials
   Marius Retegan         : Local ZFS, SOC
   Christoph Riplinger    : Optimizer, TS searches, QM/MM, DLPNO-CCSD(T), (RO)-DLPNO pert. Triples
   Tobias Risthaus        : Range-separated hybrids, TD-DFT gradient, RPA, STAB
   Michael Roemelt        : Original ROCIS implementation
   Masaaki Saitow         : Open-shell DLPNO-CCSD energy and density
   Barbara Sandhoefer     : DKH picture change effects
   Avijit Sen             : IP-ROCIS
   Kantharuban Sivalingam : CASSCF convergence, NEVPT2, FIC-MRCI
   Bernardo de Souza      : ESD, SOC TD-DFT
   Georgi Stoychev        : AutoAux, RI-MP2 NMR, DLPNO-MP2 response
   Willem Van den Heuvel  : Paramagnetic NMR
   Boris Wezisla          : Elementary symmetry handling
   Frank Wennmohs         : Technical directorship


 We gratefully acknowledge several colleagues who have allowed us to
 interface, adapt or use parts of their codes:
   Stefan Grimme, W. Hujo, H. Kruse, P. Pracht,  : VdW corrections, initial TS optimization,
                  C. Bannwarth, S. Ehlert          DFT functionals, gCP, sTDA/sTD-DF
   Ed Valeev, F. Pavosevic, A. Kumar             : LibInt (2-el integral package), F12 methods
   Garnet Chan, S. Sharma, J. Yang, R. Olivares  : DMRG
   Ulf Ekstrom                                   : XCFun DFT Library
   Mihaly Kallay                                 : mrcc  (arbitrary order and MRCC methods)
   Jiri Pittner, Ondrej Demel                    : Mk-CCSD
   Frank Weinhold                                : gennbo (NPA and NBO analysis)
   Christopher J. Cramer and Donald G. Truhlar   : smd solvation model
   Lars Goerigk                                  : TD-DFT with DH, B97 family of functionals
   V. Asgeirsson, H. Jonsson                     : NEB implementation
   FAccTs GmbH                                   : IRC, NEB, NEB-TS, DLPNO-Multilevel, CI-OPT
                                                   MM, QMMM, 2- and 3-layer-ONIOM, Crystal-QMMM,
                                                   LR-CPCM, SF, NACMEs, symmetry and pop. for TD-DFT,
                                                   nearIR, NL-DFT gradient (VV10), updates on ESD,
                                                   ML-optimized integration grids
   S Lehtola, MJT Oliveira, MAL Marques          : LibXC Library
   Liviu Ungur et al                             : ANISO software


 Your calculation uses the libint2 library for the computation of 2-el integrals
 For citations please refer to: http://libint.valeyev.net

 Your ORCA version has been built with support for libXC version: 5.1.0
 For citations please refer to: https://tddft.org/programs/libxc/

 This ORCA versions uses:
   CBLAS   interface :  Fast vector & matrix operations
   LAPACKE interface :  Fast linear algebra routines
   Shared memory     :  Shared parallel matrices


================================================================================

----- Orbital basis set information -----
Your calculation utilizes the basis: 6-311+G**
   H, Li - Ne  : R. Krishnan, J. S. Binkley, R. Seeger and J. A. Pople, J. Chem. Phys. 72, 650 (1980).
   Na - Ar     : A. D. McLean and G. S. Chandler J. Chem. Phys. 72, 5639, (1980).
   K  - Ca     : J.-P. Blaudeau, M. P. McGrath, L. A. Curtiss and L. Radom, J. Chem. Phys. 107, 5016 (1997).
   Ga - Kr     : L. A. Curtiss, M. P. McGrath, J.-P. Blandeau, N. E. Davis, R. C. Binning and L. Radom, J. Chem. Phys. 103, 6104 (1995).
   Pol./Diff.
   H, Li - Cl  : T. Clark, J. Chandrasekhar and P. v. R. Schleyer, J. Comp. Chem. 4, 294 (1983).
   H - Ne      : M. J. Frisch, J. A. Pople and J. S. Binkley, J. Chem. Phys. 80, 3265 (1984).

----- AuxJ basis set information -----
Your calculation utilizes the auxiliary basis: def2/J
   F. Weigend, Phys. Chem. Chem. Phys. 8, 1057 (2006).

================================================================================
                                        WARNINGS
                       Please study these warnings very carefully!
================================================================================


WARNING: Geometry Optimization
  ===> : Switching off AutoStart
         For restart on a previous wavefunction, please use MOREAD

INFO   : the flag for use of the SHARK integral package has been found!

================================================================================
                                       INPUT FILE
================================================================================
NAME = Dexketoprofen\Dexketoprofen_TPSS_6-311+G\Dexketoprofen_TPSS_6-311+G.orcainp
|  1> # ORCA input file
|  2> # 
|  3> !TPSS 6-311+G** Opt CPCM(WATER)
|  4> 
|  5> * xyz 0 1
|  6>    H        1.20129        -0.16932         0.23897
|  7>    C        2.26794        -0.11673        -0.02274
|  8>    C        3.06219        -0.56629         1.20342
|  9>    C        2.43159        -1.11202        -1.17182
| 10>    O        1.77888        -0.74114        -2.30430
| 11>    O        3.04791        -2.16647        -1.10611
| 12>    C        2.60248         1.32807        -0.37484
| 13>    C        3.66812         1.67324        -1.22306
| 14>    C        3.89277         3.01366        -1.58287
| 15>    C        3.12282         4.02608        -1.00191
| 16>    C        2.10481         3.69973        -0.10959
| 17>    C        1.83730         2.36158         0.18969
| 18>    C        4.92807         3.41042        -2.58203
| 19>    O        5.48927         4.49875        -2.46391
| 20>    C        5.27589         2.52516        -3.72903
| 21>    C        6.55331         2.62100        -4.29124
| 22>    C        6.92612         1.76780        -5.33332
| 23>    C        6.02518         0.81856        -5.81378
| 24>    C        4.73811         0.74719        -5.28495
| 25>    C        4.35571         1.61422        -4.26425
| 26>    H        2.74302        -1.56412         1.52440
| 27>    H        2.91450         0.11804         2.04595
| 28>    H        4.13600        -0.61445         0.99043
| 29>    H        1.29481         0.09946        -2.22163
| 30>    H        4.31939         0.89273        -1.61410
| 31>    H        3.31457         5.06879        -1.24530
| 32>    H        1.51553         4.48948         0.35131
| 33>    H        1.03152         2.13485         0.88711
| 34>    H        7.26495         3.35624        -3.91738
| 35>    H        7.92251         1.83890        -5.76326
| 36>    H        6.32312         0.13898        -6.60964
| 37>    H        4.03290         0.01141        -5.66607
| 38>    H        3.33494         1.55906        -3.89816
| 39> *
| 40> 
| 41>                          ****END OF INPUT****
================================================================================

                       *****************************
                       * Geometry Optimization Run *
                       *****************************

Geometry optimization settings:
Update method            Update   .... BFGS
Choice of coordinates    CoordSys .... Z-matrix Internals
Initial Hessian          InHess   .... Almoef's Model

Convergence Tolerances:
Energy Change            TolE     ....  5.0000e-06 Eh
Max. Gradient            TolMAXG  ....  3.0000e-04 Eh/bohr
RMS Gradient             TolRMSG  ....  1.0000e-04 Eh/bohr
Max. Displacement        TolMAXD  ....  4.0000e-03 bohr
RMS Displacement         TolRMSD  ....  2.0000e-03 bohr
Strict Convergence                ....  False
------------------------------------------------------------------------------
                        ORCA OPTIMIZATION COORDINATE SETUP
------------------------------------------------------------------------------

The optimization will be done in new redundant internal coordinates
Making redundant internal coordinates   ...  (new redundants) done
Evaluating the initial hessian          ...  (Almloef) done
Evaluating the coordinates              ...  done
Calculating the B-matrix                .... done
Calculating the G-matrix                .... done
Diagonalizing the G-matrix              .... done
Small eigenvalue found = 7.577e-03
Small eigenvalue found = 1.741e-02
Small eigenvalue found = 2.497e-02
The first mode is                       ....   76
The number of degrees of freedom        ....   93

    -----------------------------------------------------------------
                    Redundant Internal Coordinates


    -----------------------------------------------------------------
         Definition                    Initial Value    Approx d2E/dq
    -----------------------------------------------------------------
      1. B(C   1,H   0)                  1.0995         0.347691   
      2. B(C   2,C   1)                  1.5285         0.375597   
      3. B(C   3,C   1)                  1.5290         0.374982   
      4. B(O   4,C   3)                  1.3587         0.627764   
      5. B(O   5,C   3)                  1.2231         1.033035   
      6. B(C   6,C   1)                  1.5243         0.381550   
      7. B(C   7,C   6)                  1.4051         0.591157   
      8. B(C   8,C   7)                  1.4059         0.589269   
      9. B(C   9,C   8)                  1.3983         0.605962   
     10. B(C  10,C   9)                  1.3925         0.619062   
     11. B(C  11,C  10)                  1.3971         0.608801   
     12. B(C  11,C   6)                  1.4044         0.592605   
     13. B(C  12,C   8)                  1.4925         0.428737   
     14. B(O  13,C  12)                  1.2302         1.006577   
     15. B(C  14,C  12)                  1.4901         0.432616   
     16. B(C  15,C  14)                  1.3990         0.604583   
     17. B(C  16,C  15)                  1.3975         0.607927   
     18. B(C  17,C  16)                  1.3941         0.615394   
     19. B(C  18,C  17)                  1.3933         0.617252   
     20. B(C  19,C  18)                  1.3928         0.618478   
     21. B(C  19,C  14)                  1.4011         0.599893   
     22. B(H  20,C   2)                  1.0957         0.352636   
     23. B(H  21,C   2)                  1.0954         0.352982   
     24. B(H  22,C   2)                  1.0958         0.352524   
     25. B(H  23,O   4)                  0.9735         0.494739   
     26. B(H  24,C   7)                  1.0892         0.361218   
     27. B(H  25,C   9)                  1.0878         0.363058   
     28. B(H  26,C  10)                  1.0878         0.362976   
     29. B(H  27,C  11)                  1.0895         0.360718   
     30. B(H  28,C  15)                  1.0894         0.360902   
     31. B(H  29,C  16)                  1.0875         0.363398   
     32. B(H  30,C  17)                  1.0881         0.362605   
     33. B(H  31,H  23)                  4.4010         0.000000   
     34. B(H  31,C  18)                  1.0881         0.362632   
     35. B(H  32,C  19)                  1.0858         0.365653   
     36. A(C   2,C   1,C   3)          110.8425         0.363921   
     37. A(C   3,C   1,C   6)          114.8299         0.364901   
     38. A(H   0,C   1,C   2)          107.4018         0.322744   
     39. A(H   0,C   1,C   3)          104.5707         0.322657   
     40. A(H   0,C   1,C   6)          108.2540         0.323577   
     41. A(C   2,C   1,C   6)          110.4898         0.365003   
     42. A(C   1,C   2,H  21)          111.2962         0.323544   
     43. A(H  20,C   2,H  22)          107.5998         0.288920   
     44. A(C   1,C   2,H  20)          110.5776         0.323492   
     45. A(H  20,C   2,H  21)          107.7175         0.288979   
     46. A(H  21,C   2,H  22)          108.0033         0.288965   
     47. A(C   1,C   2,H  22)          111.4814         0.323475   
     48. A(O   4,C   3,O   5)          121.4775         0.471061   
     49. A(C   1,C   3,O   5)          125.0815         0.431823   
     50. A(C   1,C   3,O   4)          113.4094         0.395273   
     51. A(C   3,O   4,H  23)          113.8146         0.367755   
     52. A(C   7,C   6,C  11)          118.3663         0.426892   
     53. A(C   1,C   6,C  11)          119.0199         0.395012   
     54. A(C   1,C   6,C   7)          122.5997         0.394843   
     55. A(C   8,C   7,H  24)          119.7222         0.350073   
     56. A(C   6,C   7,C   8)          120.6570         0.426460   
     57. A(C   6,C   7,H  24)          119.6173         0.350262   
     58. A(C   7,C   8,C   9)          119.7339         0.428355   
     59. A(C   9,C   8,C  12)          117.8793         0.404785   
     60. A(C   7,C   8,C  12)          122.3854         0.402795   
     61. A(C   8,C   9,C  10)          119.9396         0.432164   
     62. A(C  10,C   9,H  25)          119.7952         0.353307   
     63. A(C   8,C   9,H  25)          120.2652         0.352031   
     64. A(C   9,C  10,H  26)          119.8262         0.353294   
     65. A(C  11,C  10,H  26)          120.0585         0.352296   
     66. A(C   9,C  10,C  11)          120.1149         0.432528   
     67. A(C  10,C  11,H  27)          118.5588         0.351924   
     68. A(C   6,C  11,H  27)          120.4717         0.350325   
     69. A(C   6,C  11,C  10)          120.9600         0.429148   
     70. A(O  13,C  12,C  14)          119.5397         0.441025   
     71. A(C   8,C  12,C  14)          121.2857         0.381596   
     72. A(C   8,C  12,O  13)          119.1661         0.440308   
     73. A(C  15,C  14,C  19)          119.3888         0.429554   
     74. A(C  12,C  14,C  19)          121.8047         0.404709   
     75. A(C  12,C  14,C  15)          118.8031         0.405266   
     76. A(C  14,C  15,C  16)          120.0965         0.430581   
     77. A(C  16,C  15,H  28)          119.5839         0.351869   
     78. A(C  14,C  15,H  28)          120.3189         0.351541   
     79. A(C  15,C  16,C  17)          120.0196         0.431954   
     80. A(C  17,C  16,H  29)          120.0236         0.353008   
     81. A(C  15,C  16,H  29)          119.9546         0.352280   
     82. A(C  16,C  17,C  18)          120.0686         0.433138   
     83. A(C  18,C  17,H  30)          119.9043         0.353058   
     84. A(C  16,C  17,H  30)          120.0241         0.352878   
     85. A(C  17,C  18,C  19)          119.9931         0.433528   
     86. A(C  19,C  18,H  31)          119.9804         0.353181   
     87. A(C  17,C  18,H  31)          120.0260         0.353062   
     88. A(C  14,C  19,C  18)          120.2903         0.431310   
     89. A(C  18,C  19,H  32)          118.2662         0.353677   
     90. A(C  14,C  19,H  32)          121.4429         0.351856   
     91. D(H  20,C   2,C   1,C   3)    -57.7773         0.011258   
     92. D(H  22,C   2,C   1,H   0)    175.5482         0.011258   
     93. D(H  21,C   2,C   1,C   3)   -177.4624         0.011258   
     94. D(H  21,C   2,C   1,H   0)    -63.7953         0.011258   
     95. D(H  21,C   2,C   1,C   6)     54.0795         0.011258   
     96. D(H  20,C   2,C   1,C   6)    173.7647         0.011258   
     97. D(H  22,C   2,C   1,C   6)    -66.5770         0.011258   
     98. D(H  20,C   2,C   1,H   0)     55.8898         0.011258   
     99. D(H  22,C   2,C   1,C   3)     61.8811         0.011258   
    100. D(O   5,C   3,C   1,C   2)      3.9480         0.010510   
    101. D(O   5,C   3,C   1,H   0)   -111.4946         0.010510   
    102. D(O   4,C   3,C   1,C   6)    -52.0073         0.010510   
    103. D(O   4,C   3,C   1,C   2)   -178.0832         0.010510   
    104. D(O   5,C   3,C   1,C   6)    130.0239         0.010510   
    105. D(O   4,C   3,C   1,H   0)     66.4742         0.010510   
    106. D(H  23,O   4,C   3,O   5)    177.5668         0.028966   
    107. D(H  23,O   4,C   3,C   1)     -0.4842         0.028966   
    108. D(C  11,C   6,C   1,C   2)    -90.5096         0.010858   
    109. D(C  11,C   6,C   1,H   0)     26.8413         0.010858   
    110. D(C   7,C   6,C   1,C   3)    -38.1577         0.010858   
    111. D(C  11,C   6,C   1,C   3)    143.2325         0.010858   
    112. D(C   7,C   6,C   1,C   2)     88.1002         0.010858   
    113. D(C   7,C   6,C   1,H   0)   -154.5489         0.010858   
    114. D(H  24,C   7,C   6,C  11)    175.5750         0.024054   
    115. D(H  24,C   7,C   6,C   1)     -3.0435         0.024054   
    116. D(C   8,C   7,C   6,C  11)     -5.1084         0.024054   
    117. D(C   8,C   7,C   6,C   1)    176.2731         0.024054   
    118. D(C  12,C   8,C   7,H  24)      5.3373         0.023893   
    119. D(C  12,C   8,C   7,C   6)   -173.9785         0.023893   
    120. D(C   9,C   8,C   7,H  24)   -175.1140         0.023893   
    121. D(C   9,C   8,C   7,C   6)      5.5702         0.023893   
    122. D(H  25,C   9,C   8,C  12)     -2.7683         0.025341   
    123. D(H  25,C   9,C   8,C   7)    177.6629         0.025341   
    124. D(C  10,C   9,C   8,C  12)    177.1333         0.025341   
    125. D(C  10,C   9,C   8,C   7)     -2.4355         0.025341   
    126. D(H  26,C  10,C   9,H  25)     -0.8994         0.026514   
    127. D(H  26,C  10,C   9,C   8)    179.1986         0.026514   
    128. D(C  11,C  10,C   9,H  25)    178.8712         0.026514   
    129. D(C  11,C  10,C   9,C   8)     -1.0308         0.026514   
    130. D(H  27,C  11,C  10,C   9)   -179.6716         0.025592   
    131. D(C   6,C  11,C  10,H  26)   -178.7877         0.025592   
    132. D(C   6,C  11,C  10,C   9)      1.4423         0.025592   
    133. D(H  27,C  11,C   6,C   7)   -177.2528         0.024178   
    134. D(H  27,C  11,C   6,C   1)      1.4162         0.024178   
    135. D(C  10,C  11,C   6,C   7)      1.6120         0.024178   
    136. D(H  27,C  11,C  10,H  26)      0.0984         0.025592   
    137. D(C  10,C  11,C   6,C   1)   -179.7190         0.024178   
    138. D(C  14,C  12,C   8,C   9)   -147.2973         0.012561   
    139. D(C  14,C  12,C   8,C   7)     32.2594         0.012561   
    140. D(O  13,C  12,C   8,C   9)     31.6415         0.012561   
    141. D(O  13,C  12,C   8,C   7)   -148.8019         0.012561   
    142. D(C  19,C  14,C  12,O  13)   -151.8056         0.012782   
    143. D(C  19,C  14,C  12,C   8)     27.1292         0.012782   
    144. D(C  15,C  14,C  12,O  13)     27.5187         0.012782   
    145. D(C  15,C  14,C  12,C   8)   -153.5464         0.012782   
    146. D(H  28,C  15,C  14,C  19)    177.1443         0.025219   
    147. D(H  28,C  15,C  14,C  12)     -2.1968         0.025219   
    148. D(C  16,C  15,C  14,C  19)     -3.1666         0.025219   
    149. D(C  16,C  15,C  14,C  12)    177.4924         0.025219   
    150. D(H  29,C  16,C  15,H  28)      0.1862         0.025515   
    151. D(H  29,C  16,C  15,C  14)   -179.5052         0.025515   
    152. D(C  17,C  16,C  15,H  28)    179.6441         0.025515   
    153. D(C  17,C  16,C  15,C  14)     -0.0473         0.025515   
    154. D(H  30,C  17,C  16,H  29)      0.8611         0.026182   
    155. D(H  30,C  17,C  16,C  15)   -178.5964         0.026182   
    156. D(C  18,C  17,C  16,H  29)   -178.5110         0.026182   
    157. D(C  18,C  17,C  16,C  15)      2.0315         0.026182   
    158. D(H  31,C  18,C  17,H  30)      0.1294         0.026350   
    159. D(H  31,C  18,C  17,C  16)    179.5023         0.026350   
    160. D(C  19,C  18,C  17,H  30)    179.8621         0.026350   
    161. D(C  19,C  18,C  17,C  16)     -0.7650         0.026350   
    162. D(H  32,C  19,C  18,C  17)    177.7692         0.026461   
    163. D(C  14,C  19,C  18,H  31)    177.2432         0.026461   
    164. D(C  14,C  19,C  18,C  17)     -2.4896         0.026461   
    165. D(H  32,C  19,C  14,C  15)   -175.8253         0.024808   
    166. D(H  32,C  19,C  14,C  12)      3.4952         0.024808   
    167. D(C  18,C  19,C  14,C  15)      4.4419         0.024808   
    168. D(H  32,C  19,C  18,H  31)     -2.4979         0.026461   
    169. D(C  18,C  19,C  14,C  12)   -176.2376         0.024808   
    -----------------------------------------------------------------

Number of atoms                         .... 33
Number of degrees of freedom            .... 169

         *************************************************************
         *                GEOMETRY OPTIMIZATION CYCLE   1            *
         *************************************************************
---------------------------------
CARTESIAN COORDINATES (ANGSTROEM)
---------------------------------
  H      1.201290   -0.169320    0.238970
  C      2.267940   -0.116730   -0.022740
  C      3.062190   -0.566290    1.203420
  C      2.431590   -1.112020   -1.171820
  O      1.778880   -0.741140   -2.304300
  O      3.047910   -2.166470   -1.106110
  C      2.602480    1.328070   -0.374840
  C      3.668120    1.673240   -1.223060
  C      3.892770    3.013660   -1.582870
  C      3.122820    4.026080   -1.001910
  C      2.104810    3.699730   -0.109590
  C      1.837300    2.361580    0.189690
  C      4.928070    3.410420   -2.582030
  O      5.489270    4.498750   -2.463910
  C      5.275890    2.525160   -3.729030
  C      6.553310    2.621000   -4.291240
  C      6.926120    1.767800   -5.333320
  C      6.025180    0.818560   -5.813780
  C      4.738110    0.747190   -5.284950
  C      4.355710    1.614220   -4.264250
  H      2.743020   -1.564120    1.524400
  H      2.914500    0.118040    2.045950
  H      4.136000   -0.614450    0.990430
  H      1.294810    0.099460   -2.221630
  H      4.319390    0.892730   -1.614100
  H      3.314570    5.068790   -1.245300
  H      1.515530    4.489480    0.351310
  H      1.031520    2.134850    0.887110
  H      7.264950    3.356240   -3.917380
  H      7.922510    1.838900   -5.763260
  H      6.323120    0.138980   -6.609640
  H      4.032900    0.011410   -5.666070
  H      3.334940    1.559060   -3.898160

----------------------------
CARTESIAN COORDINATES (A.U.)
----------------------------
  NO LB      ZA    FRAG     MASS         X           Y           Z
   0 H     1.0000    0     1.008    2.270109   -0.319968    0.451588
   1 C     6.0000    0    12.011    4.285785   -0.220588   -0.042972
   2 C     6.0000    0    12.011    5.786700   -1.070133    2.274134
   3 C     6.0000    0    12.011    4.595039   -2.101413   -2.214419
   4 O     8.0000    0    15.999    3.361596   -1.400552   -4.354496
   5 O     8.0000    0    15.999    5.759715   -4.094035   -2.090245
   6 C     6.0000    0    12.011    4.917974    2.509689   -0.708345
   7 C     6.0000    0    12.011    6.931742    3.161965   -2.311248
   8 C     6.0000    0    12.011    7.356269    5.694992   -2.991191
   9 C     6.0000    0    12.011    5.901275    7.608189   -1.893336
  10 C     6.0000    0    12.011    3.977514    6.991476   -0.207095
  11 C     6.0000    0    12.011    3.471994    4.462739    0.358462
  12 C     6.0000    0    12.011    9.312703    6.444760   -4.879330
  13 O     8.0000    0    15.999   10.373217    8.501405   -4.656115
  14 C     6.0000    0    12.011    9.969987    4.771861   -7.046845
  15 C     6.0000    0    12.011   12.383961    4.952972   -8.109268
  16 C     6.0000    0    12.011   13.088470    3.340658  -10.078514
  17 C     6.0000    0    12.011   11.385940    1.546854  -10.986452
  18 C     6.0000    0    12.011    8.953730    1.411984   -9.987108
  19 C     6.0000    0    12.011    8.231099    3.050434   -8.058265
  20 H     1.0000    0     1.008    5.183557   -2.955758    2.880699
  21 H     1.0000    0     1.008    5.507607    0.223063    3.866285
  22 H     1.0000    0     1.008    7.815907   -1.161142    1.871641
  23 H     1.0000    0     1.008    2.446836    0.187952   -4.198272
  24 H     1.0000    0     1.008    8.162464    1.687015   -3.050207
  25 H     1.0000    0     1.008    6.263630    9.578625   -2.353276
  26 H     1.0000    0     1.008    2.863937    8.483888    0.663880
  27 H     1.0000    0     1.008    1.949290    4.034282    1.676395
  28 H     1.0000    0     1.008   13.728766    6.342374   -7.402775
  29 H     1.0000    0     1.008   14.971374    3.475017  -10.890983
  30 H     1.0000    0     1.008   11.948965    0.262634  -12.490409
  31 H     1.0000    0     1.008    7.621077    0.021562  -10.707321
  32 H     1.0000    0     1.008    6.302123    2.946196   -7.366455

--------------------------------
INTERNAL COORDINATES (ANGSTROEM)
--------------------------------
 H      0   0   0     0.000000000000     0.00000000     0.00000000
 C      1   0   0     1.099545385466     0.00000000     0.00000000
 C      2   1   0     1.528530536725   107.40184304     0.00000000
 C      2   1   3     1.528976243439   104.57066696   117.82181232
 O      4   2   1     1.358710148965   113.40937132    66.47419400
 O      4   2   1     1.223124257384   125.08146123   248.50542881
 C      2   1   3     1.524250130917   108.25396870   240.68297565
 C      7   2   1     1.405065161087   122.59966495   205.45106012
 C      8   7   2     1.405936212991   120.65696885   176.27308761
 C      9   8   7     1.398331784842   119.73385859     5.57017989
 C     10   9   8     1.392509843771   119.93955219   357.56445915
 C     11  10   9     1.397059605386   120.11491138   358.96915744
 C      9   8   7     1.492509729684   122.38539064   186.02146003
 O     13   9   8     1.230186962742   119.16614643   211.19814032
 C     13   9   8     1.490058059272   121.28572938    32.25938995
 C     15  13   9     1.398952195788   118.80309306   206.45358636
 C     16  15  13     1.397450629718   120.09645342   177.49238495
 C     17  16  15     1.394127423445   120.01962203   359.95265421
 C     18  17  16     1.393306868820   120.06864705     2.03151075
 C     19  18  17     1.392766768307   119.99306793   359.23496767
 H      3   2   1     1.095701765172   110.57761066    55.88984251
 H      3   2   1     1.095434473577   111.29620666   296.20468617
 H      3   2   1     1.095788319795   111.48142907   175.54820722
 H      5   4   2     0.973532975199   113.81456996   359.51577966
 H      8   7   2     1.089155982676   119.61731512   356.95652055
 H     10   9   8     1.087773367343   120.26518371   177.66287748
 H     11  10   9     1.087834909763   119.82623444   179.19859480
 H     12  11  10     1.089533183386   118.55882667   180.32837245
 H     16  15  13     1.089394624000   120.31894726   357.80324183
 H     17  16  15     1.087518572577   119.95459473   180.49480250
 H     18  17  16     1.088113210838   120.02412603   181.40359222
 H     19  18  17     1.088092738189   120.02601343   179.50227627
 H     20  19  18     1.085834198485   118.26622754   177.76924758

---------------------------
INTERNAL COORDINATES (A.U.)
---------------------------
 H      0   0   0     0.000000000000     0.00000000     0.00000000
 C      1   0   0     2.077839650348     0.00000000     0.00000000
 C      2   1   0     2.888504101745   107.40184304     0.00000000
 C      2   1   3     2.889346365371   104.57066696   117.82181232
 O      4   2   1     2.567590076923   113.40937132    66.47419400
 O      4   2   1     2.311369874211   125.08146123   248.50542881
 C      2   1   3     2.880415307026   108.25396870   240.68297565
 C      7   2   1     2.655188354768   122.59966495   205.45106012
 C      8   7   2     2.656834404316   120.65696885   176.27308761
 C      9   8   7     2.642464117709   119.73385859     5.57017989
 C     10   9   8     2.631462243517   119.93955219   357.56445915
 C     11  10   9     2.640060046943   120.11491138   358.96915744
 C      9   8   7     2.820434641315   122.38539064   186.02146003
 O     13   9   8     2.324716453102   119.16614643   211.19814032
 C     13   9   8     2.815801655665   121.28572938    32.25938995
 C     15  13   9     2.643636524487   118.80309306   206.45358636
 C     16  15  13     2.640798975843   120.09645342   177.49238495
 C     17  16  15     2.634519026099   120.01962203   359.95265421
 C     18  17  16     2.632968402580   120.06864705     2.03151075
 C     19  18  17     2.631947760527   119.99306793   359.23496767
 H      3   2   1     2.070576260628   110.57761066    55.88984251
 H      3   2   1     2.070071152716   111.29620666   296.20468617
 H      3   2   1     2.070739825163   111.48142907   175.54820722
 H      5   4   2     1.839710705468   113.81456996   359.51577966
 H      8   7   2     2.058206524380   119.61731512   356.95652055
 H     10   9   8     2.055593760051   120.26518371   177.66287748
 H     11  10   9     2.055710058372   119.82623444   179.19859480
 H     12  11  10     2.058919330420   118.55882667   180.32837245
 H     16  15  13     2.058657491126   120.31894726   357.80324183
 H     17  16  15     2.055112267724   119.95459473   180.49480250
 H     18  17  16     2.056235971185   120.02412603   181.40359222
 H     19  18  17     2.056197283486   120.02601343   179.50227627
 H     20  19  18     2.051929261983   118.26622754   177.76924758

---------------------
BASIS SET INFORMATION
---------------------
There are 3 groups of distinct atoms

 Group   1 Type H   : 5s1p contracted to 3s1p pattern {311/1}
 Group   2 Type C   : 12s6p1d contracted to 5s4p1d pattern {63111/3111/1}
 Group   3 Type O   : 12s6p1d contracted to 5s4p1d pattern {63111/3111/1}

Atom   0H    basis set group =>   1
Atom   1C    basis set group =>   2
Atom   2C    basis set group =>   2
Atom   3C    basis set group =>   2
Atom   4O    basis set group =>   3
Atom   5O    basis set group =>   3
Atom   6C    basis set group =>   2
Atom   7C    basis set group =>   2
Atom   8C    basis set group =>   2
Atom   9C    basis set group =>   2
Atom  10C    basis set group =>   2
Atom  11C    basis set group =>   2
Atom  12C    basis set group =>   2
Atom  13O    basis set group =>   3
Atom  14C    basis set group =>   2
Atom  15C    basis set group =>   2
Atom  16C    basis set group =>   2
Atom  17C    basis set group =>   2
Atom  18C    basis set group =>   2
Atom  19C    basis set group =>   2
Atom  20H    basis set group =>   1
Atom  21H    basis set group =>   1
Atom  22H    basis set group =>   1
Atom  23H    basis set group =>   1
Atom  24H    basis set group =>   1
Atom  25H    basis set group =>   1
Atom  26H    basis set group =>   1
Atom  27H    basis set group =>   1
Atom  28H    basis set group =>   1
Atom  29H    basis set group =>   1
Atom  30H    basis set group =>   1
Atom  31H    basis set group =>   1
Atom  32H    basis set group =>   1
---------------------------------
AUXILIARY/J BASIS SET INFORMATION
---------------------------------
There are 3 groups of distinct atoms

 Group   1 Type H   : 5s2p1d contracted to 3s1p1d pattern {311/2/1}
 Group   2 Type C   : 12s5p4d2f1g contracted to 6s4p3d1f1g pattern {711111/2111/211/2/1}
 Group   3 Type O   : 12s5p4d2f1g contracted to 6s4p3d1f1g pattern {711111/2111/211/2/1}

Atom   0H    basis set group =>   1
Atom   1C    basis set group =>   2
Atom   2C    basis set group =>   2
Atom   3C    basis set group =>   2
Atom   4O    basis set group =>   3
Atom   5O    basis set group =>   3
Atom   6C    basis set group =>   2
Atom   7C    basis set group =>   2
Atom   8C    basis set group =>   2
Atom   9C    basis set group =>   2
Atom  10C    basis set group =>   2
Atom  11C    basis set group =>   2
Atom  12C    basis set group =>   2
Atom  13O    basis set group =>   3
Atom  14C    basis set group =>   2
Atom  15C    basis set group =>   2
Atom  16C    basis set group =>   2
Atom  17C    basis set group =>   2
Atom  18C    basis set group =>   2
Atom  19C    basis set group =>   2
Atom  20H    basis set group =>   1
Atom  21H    basis set group =>   1
Atom  22H    basis set group =>   1
Atom  23H    basis set group =>   1
Atom  24H    basis set group =>   1
Atom  25H    basis set group =>   1
Atom  26H    basis set group =>   1
Atom  27H    basis set group =>   1
Atom  28H    basis set group =>   1
Atom  29H    basis set group =>   1
Atom  30H    basis set group =>   1
Atom  31H    basis set group =>   1
Atom  32H    basis set group =>   1
------------------------------------------------------------------------------
                           ORCA GTO INTEGRAL CALCULATION
                           -- RI-GTO INTEGRALS CHOSEN --
------------------------------------------------------------------------------
------------------------------------------------------------------------------
                   ___                                                        
                  /   \      - P O W E R E D   B Y -                         
                 /     \                                                     
                 |  |  |   _    _      __       _____    __    __             
                 |  |  |  | |  | |    /  \     |  _  \  |  |  /  |          
                  \  \/   | |  | |   /    \    | | | |  |  | /  /          
                 / \  \   | |__| |  /  /\  \   | |_| |  |  |/  /          
                |  |  |   |  __  | /  /__\  \  |    /   |      \           
                |  |  |   | |  | | |   __   |  |    \   |  |\   \          
                \     /   | |  | | |  |  |  |  | |\  \  |  | \   \       
                 \___/    |_|  |_| |__|  |__|  |_| \__\ |__|  \__/        
                                                                              
                      - O R C A' S   B I G   F R I E N D -                    
                                      &                                       
                       - I N T E G R A L  F E E D E R -                       
                                                                              
 v1 FN, 2020, v2 2021                                                         
------------------------------------------------------------------------------


Reading SHARK input file Dexketoprofen\Dexketoprofen_TPSS_6-311+G\Dexketoprofen_TPSS_6-311+G.orcainp.SHARKINP.tmp ... ok
----------------------
SHARK INTEGRAL PACKAGE
----------------------

Number of atoms                             ...     33
Number of basis functions                   ...    502
Number of shells                            ...    246
Maximum angular momentum                    ...      2
Integral batch strategy                     ... SHARK/LIBINT Hybrid
RI-J (if used) integral strategy            ... SPLIT-RIJ (Revised 2003 algorithm where possible)
Printlevel                                  ...      1
Contraction scheme used                     ... SEGMENTED contraction
Coulomb Range Separation                    ... NOT USED
Exchange Range Separation                   ... NOT USED
Finite Nucleus Model                        ... NOT USED
Auxiliary Coulomb fitting basis             ... AVAILABLE
   # of basis functions in Aux-J            ...   1085
   # of shells in Aux-J                     ...    355
   Maximum angular momentum in Aux-J        ...      4
Auxiliary J/K fitting basis                 ... NOT available
Auxiliary Correlation fitting basis         ... NOT available
Auxiliary 'external' fitting basis          ... NOT available
Integral threshold                          ...     2.500000e-11
Primitive cut-off                           ...     2.500000e-12
Primitive pair pre-selection threshold      ...     2.500000e-12

Calculating pre-screening integrals         ... done (  0.0 sec) Dimension = 246
Organizing shell pair data                  ... done (  0.1 sec)
Shell pair information
Total number of shell pairs                 ...     30381
Shell pairs after pre-screening             ...     24008
Total number of primitive shell pairs       ...     99676
Primitive shell pairs kept                  ...     52894
          la=0 lb=0:   7276 shell pairs
          la=1 lb=0:   9951 shell pairs
          la=1 lb=1:   3437 shell pairs
          la=2 lb=0:   1885 shell pairs
          la=2 lb=1:   1325 shell pairs
          la=2 lb=2:    134 shell pairs

Calculating one electron integrals          ... done (  0.0 sec)
Calculating RI/J V-Matrix + Cholesky decomp.... done (  0.0 sec)
Calculating Nuclear repulsion               ... done (  0.0 sec) ENN=   1336.467642176996 Eh

SHARK setup successfully completed in   0.3 seconds

Maximum memory used throughout the entire GTOINT-calculation: 116.0 MB
-------------------------------------------------------------------------------
                                 ORCA SCF
-------------------------------------------------------------------------------

------------
SCF SETTINGS
------------
Hamiltonian:
 Density Functional     Method          .... DFT(GTOs)
 Exchange Functional    Exchange        .... TPSS
 Correlation Functional Correlation     .... TPSS
 LDA part of GGA corr.  LDAOpt          .... PW91-LDA
 Gradients option       PostSCFGGA      .... off
   Density functional embedding theory  .... OFF
   NL short-range parameter             ....  5.000000
 RI-approximation to the Coulomb term is turned on
   Number of AuxJ basis functions       .... 1085


General Settings:
 Integral files         IntName         .... Dexketoprofen\Dexketoprofen_TPSS_6-311+G\Dexketoprofen_TPSS_6-311+G.orcainp
 Hartree-Fock type      HFTyp           .... RHF
 Total Charge           Charge          ....    0
 Multiplicity           Mult            ....    1
 Number of Electrons    NEL             ....  134
 Basis Dimension        Dim             ....  502
 Nuclear Repulsion      ENuc            ....   1336.4676421770 Eh

Convergence Acceleration:
 DIIS                   CNVDIIS         .... on
   Start iteration      DIISMaxIt       ....    12
   Startup error        DIISStart       ....  0.200000
   # of expansion vecs  DIISMaxEq       ....     5
   Bias factor          DIISBfac        ....   1.050
   Max. coefficient     DIISMaxC        ....  10.000
 Trust-Rad. Augm. Hess. CNVTRAH         .... auto
   Auto Start mean grad. ratio tolernc. ....  1.125000
   Auto Start start iteration           ....    20
   Auto Start num. interpolation iter.  ....    10
   Max. Number of Micro iterations      ....    16
   Max. Number of Macro iterations      .... Maxiter - #DIIS iter
   Number of Davidson start vectors     ....     2
   Converg. threshold I  (grad. norm)   ....   1.000e-05
   Converg. threshold II (energy diff.) ....   1.000e-08
   Grad. Scal. Fac. for Micro threshold ....   0.100
   Minimum threshold for Micro iter.    ....   0.010
   NR start threshold (gradient norm)   ....   0.001
   Initial trust radius                 ....   0.400
   Minimum AH scaling param. (alpha)    ....   1.000
   Maximum AH scaling param. (alpha)    .... 1000.000
   Orbital update algorithm             .... Taylor
   White noise on init. David. guess    .... on
   Maximum white noise                  ....   0.010
   Quad. conv. algorithm                .... NR
 SOSCF                  CNVSOSCF        .... on
   Start iteration      SOSCFMaxIt      ....   150
   Startup grad/error   SOSCFStart      ....  0.003300
 Level Shifting         CNVShift        .... on
   Level shift para.    LevelShift      ....    0.2500
   Turn off err/grad.   ShiftErr        ....    0.0010
 Zerner damping         CNVZerner       .... off
 Static damping         CNVDamp         .... on
   Fraction old density DampFac         ....    0.7000
   Max. Damping (<1)    DampMax         ....    0.9800
   Min. Damping (>=0)   DampMin         ....    0.0000
   Turn off err/grad.   DampErr         ....    0.1000
 Fernandez-Rico         CNVRico         .... off

SCF Procedure:
 Maximum # iterations   MaxIter         ....   125
 SCF integral mode      SCFMode         .... Direct
   Integral package                     .... SHARK and LIBINT hybrid scheme
 Reset frequency        DirectResetFreq ....    20
 Integral Threshold     Thresh          ....  2.500e-11 Eh
 Primitive CutOff       TCut            ....  2.500e-12 Eh

Convergence Tolerance:
 Convergence Check Mode ConvCheckMode   .... Total+1el-Energy
 Convergence forced     ConvForced      .... 0
 Energy Change          TolE            ....  1.000e-08 Eh
 1-El. energy change                    ....  1.000e-05 Eh
 Orbital Gradient       TolG            ....  1.000e-05
 Orbital Rotation angle TolX            ....  1.000e-05
 DIIS Error             TolErr          ....  5.000e-07


Diagonalization of the overlap matrix:
Smallest eigenvalue                        ... 5.550e-07
Time for diagonalization                   ...    0.013 sec
Threshold for overlap eigenvalues          ... 1.000e-08
Number of eigenvalues below threshold      ... 0
Time for construction of square roots      ...    0.010 sec
Total time needed                          ...    0.023 sec

Time for model grid setup =    0.385 sec

------------------------------
INITIAL GUESS: MODEL POTENTIAL
------------------------------
Loading Hartree-Fock densities                     ... done
Calculating cut-offs                               ... done
Initializing the effective Hamiltonian             ... done
Setting up the integral package (SHARK)            ... done
Starting the Coulomb interaction                   ... done (   0.6 sec)
Reading the grid                                   ... done
Mapping shells                                     ... done
Starting the XC term evaluation                    ... done (   0.6 sec)
  promolecular density results
     # of electrons  =    133.988849699
     EX              =   -110.372573149
     EC              =     -4.477147948
     EX+EC           =   -114.849721097
Transforming the Hamiltonian                       ... done (   0.0 sec)
Diagonalizing the Hamiltonian                      ... done (   0.0 sec)
Back transforming the eigenvectors                 ... done (   0.0 sec)
Now organizing SCF variables                       ... done
                      ------------------
                      INITIAL GUESS DONE (   1.6 sec)
                      ------------------
-------------------
DFT GRID GENERATION
-------------------

General Integration Accuracy     IntAcc      ... 4.388
Radial Grid Type                 RadialGrid  ... OptM3 with GC (2021)
Angular Grid (max. ang.)         AngularGrid ... 4 (Lebedev-302)
Angular grid pruning method      GridPruning ... 4 (adaptive)
Weight generation scheme         WeightScheme... Becke
Basis function cutoff            BFCut       ... 1.0000e-11
Integration weight cutoff        WCut        ... 1.0000e-14
Angular grids for H and He will be reduced by one unit
Partially contracted basis set               ... off
Rotationally invariant grid construction     ... off

Total number of grid points                  ...   163065
Total number of batches                      ...     2564
Average number of points per batch           ...       63
Average number of grid points per atom       ...     4941
Time for grid setup =    1.313 sec


--------------------
CPCM SOLVATION MODEL
--------------------
CPCM parameters:
  Epsilon                                         ...      80.4000
  Refrac                                          ...       1.3300
  Rsolv                                           ...       1.3000
  Surface type                                    ... GAUSSIAN VDW
  Epsilon function type                           ...         CPCM
Radii:
 Radius for H  used is    2.4944 Bohr (=   1.3200 Ang.)
 Radius for C  used is    3.8550 Bohr (=   2.0400 Ang.)
 Radius for O  used is    3.4469 Bohr (=   1.8240 Ang.)
Calculating surface                               ...        done! (  0.0s)
GEPOL surface points                              ...         1773
GEPOL Volume                                      ...    2081.6078
GEPOL Surface-area                                ...    1084.9852
Calculating surface distance matrix               ...        done! (  0.0s)
Performing Cholesky decomposition & store         ...        done! (  0.1s)
Overall time for CPCM initialization              ...                 0.1s
--------------
SCF ITERATIONS
--------------
ITER       Energy         Delta-E        Max-DP      RMS-DP      [F,P]     Damp
               ***  Starting incremental Fock matrix formation  ***
  0   -843.7821980076   0.000000000000 6.76368712  0.01799722  0.2821419 0.7000
  1   -843.9902201754  -0.208022167821 2.68224742  0.00957847  0.0860915 0.7000
                               ***Turning on DIIS***
  2   -844.0590788662  -0.068858690789 2.16593601  0.01615384  0.0277750 0.0000
  3   -844.1797791622  -0.120700295928 3.06287794  0.01040506  0.0520059 0.0000
  4   -844.2030923961  -0.023313233981 0.82569835  0.00503875  0.0281705 0.0000
  5   -844.2064050022  -0.003312606103 0.13086225  0.00120868  0.0058880 0.0000
                      *** Initiating the SOSCF procedure ***
                           *** Shutting down DIIS ***
                      *** Re-Reading the Fockian *** 
                      *** Removing any level shift *** 
ITER      Energy       Delta-E        Grad      Rot      Max-DP    RMS-DP
  6   -844.20652006  -0.0001150625  0.000369  0.000369  0.289167  0.001218
               *** Restarting incremental Fock matrix formation ***
  7   -844.20653627  -0.0000162018  0.000176  0.000575  0.452744  0.002771
  8   -844.20653282   0.0000034421  0.000325  0.000493  0.130174  0.000696
  9   -844.20653850  -0.0000056767  0.000063  0.000183  0.186140  0.001386
 10   -844.20653818   0.0000003201  0.000106  0.000130  0.184078  0.000858
 11   -844.20653865  -0.0000004680  0.000021  0.000053  0.544882  0.002578
 12   -844.20653858   0.0000000682  0.000027  0.000047  0.082123  0.000601
 13   -844.20653862  -0.0000000416  0.000006  0.000023  0.485642  0.001568
 14   -844.20653858   0.0000000390  0.000010  0.000012  0.118619  0.001075
 15   -844.20653862  -0.0000000380  0.000006  0.000018  0.275238  0.001911
 16   -844.20653860   0.0000000255  0.000011  0.000011  0.243686  0.001164
 17   -844.20653860  -0.0000000060  0.000007  0.000028  1.242642  0.003644
 18   -844.20653854   0.0000000596  0.000015  0.000021  0.784793  0.002262
 19   -844.20653860  -0.0000000620  0.000006  0.000017  0.209877  0.001304

 WARNING: the maximum gradient error descreased on average only by a factor   1.1
          during the last 20 iterations

                      *** Initiating the TRAH-SCF procedure ***

              ***Rediagonalizing the Fockian in SOSCF/NRSCF***

TRAH GRID
---------

General Integration Accuracy     IntAcc      ... 3.467
Radial Grid Type                 RadialGrid  ... OptM3 with GC (2021)
Angular Grid (max. ang.)         AngularGrid ... 1 (Lebedev-50)
Angular grid pruning method      GridPruning ... 4 (adaptive)
Weight generation scheme         WeightScheme... Becke
Basis function cutoff            BFCut       ... 1.0000e-11
Integration weight cutoff        WCut        ... 1.0000e-14
Angular grids for H and He will be reduced by one unit
Partially contracted basis set               ... off
Rotationally invariant grid construction     ... off

Total number of grid points                  ...    24133
Total number of batches                      ...      392
Average number of points per batch           ...       61
Average number of grid points per atom       ...      731

 --------------------------------------------------------------------------------------------
   Iter.        energy            ||Error||_2        Shift      TRadius  Mac/Mic        Rej.
 --------------------------------------------------------------------------------------------
    0       -844.206538589296     1.042315e-03                     0.400 (TRAH MAcro)   No
    0     dE    -1.111378e-07     1.621172e-03    -2.2228e-07      0.000 (TRAH MIcro)
    0     dE    -1.490997e-07     6.718365e-04    -2.9820e-07      0.000 (TRAH MIcro)
    0     dE    -1.587005e-07     9.195716e-05    -3.1740e-07      0.000 (TRAH MIcro)
    1       -844.206538746456     9.191650e-05                           (NR   MAcro)
    1     dE    -3.141521e-10     3.988505e-05                           (NR   MIcro)
    1     dE    -3.524097e-10     1.676587e-05                           (NR   MIcro)
    1     dE    -3.598741e-10     5.554245e-06                           (NR   MIcro)
    1     dE    -3.609702e-10     1.285542e-06                           (NR   MIcro)
    1     dE    -3.610167e-10     3.872241e-07                           (NR   MIcro)
    2       -844.206538746759     4.384735e-07                           (NR   MAcro)

               *****************************************************
               *                     SUCCESS                       *
               *           SCF CONVERGED AFTER  31 CYCLES          *
               *****************************************************


----------------
TOTAL SCF ENERGY
----------------

Total Energy       :         -844.20653875 Eh          -22972.02779 eV

Components:
Nuclear Repulsion  :         1336.46764218 Eh           36367.13341 eV
Electronic Energy  :        -2180.67418092 Eh          -59339.16121 eV
One Electron Energy:        -3799.41873955 Eh         -103387.44002 eV
Two Electron Energy:         1618.74455862 Eh           44048.27881 eV
CPCM Dielectric    :           -0.03054008 Eh              -0.83104 eV

Virial components:
Potential Energy   :        -1685.19383904 Eh          -45856.45566 eV
Kinetic Energy     :          840.98730029 Eh           22884.42786 eV
Virial Ratio       :            2.00382793


DFT components:
N(Alpha)           :       66.999984054451 electrons
N(Beta)            :       66.999984054451 electrons
N(Total)           :      133.999968108902 electrons
E(X)               :     -113.624965065981 Eh       
E(C)               :       -4.490506757066 Eh       
E(XC)              :     -118.115471823047 Eh       
DFET-embed. en.    :        0.000000000000 Eh       
CPCM Solvation Model Properties:
Surface-charge          :           -0.03102490
Charge-correction       :            0.00005615 Eh               0.00153 eV
Free-energy (cav+disp)  :  This term is not implemented in the current solvation scheme

---------------
SCF CONVERGENCE
---------------

  Last Energy change         ...   -3.0263e-10  Tolerance :   1.0000e-08
  Last Orbital Gradient      ...    4.3847e-07  Tolerance :   1.0000e-05
  Last Orbital Rotation      ...    1.1234e-05

             **** THE GBW FILE WAS UPDATED (Dexketoprofen\Dexketoprofen_TPSS_6-311+G\Dexketoprofen_TPSS_6-311+G.orcainp.gbw) ****
             **** DENSITY Dexketoprofen\Dexketoprofen_TPSS_6-311+G\Dexketoprofen_TPSS_6-311+G.orcainp.scfp WAS UPDATED ****
             **** ENERGY FILE WAS UPDATED (Dexketoprofen\Dexketoprofen_TPSS_6-311+G\Dexketoprofen_TPSS_6-311+G.orcainp.en.tmp) ****
             **** THE GBW FILE WAS UPDATED (Dexketoprofen\Dexketoprofen_TPSS_6-311+G\Dexketoprofen_TPSS_6-311+G.orcainp.gbw) ****
             **** DENSITY Dexketoprofen\Dexketoprofen_TPSS_6-311+G\Dexketoprofen_TPSS_6-311+G.orcainp.scfp WAS UPDATED ****
----------------
ORBITAL ENERGIES
----------------

  NO   OCC          E(Eh)            E(eV) 
   0   2.0000     -18.935561      -515.2628 
   1   2.0000     -18.886969      -513.9405 
   2   2.0000     -18.876846      -513.6651 
   3   2.0000     -10.128131      -275.6005 
   4   2.0000     -10.080808      -274.3127 
   5   2.0000     -10.020056      -272.6596 
   6   2.0000     -10.016388      -272.5598 
   7   2.0000     -10.010189      -272.3911 
   8   2.0000     -10.008550      -272.3465 
   9   2.0000     -10.007370      -272.3144 
  10   2.0000     -10.003633      -272.2127 
  11   2.0000     -10.002302      -272.1765 
  12   2.0000     -10.001954      -272.1670 
  13   2.0000     -10.001682      -272.1596 
  14   2.0000      -9.999691      -272.1054 
  15   2.0000      -9.999515      -272.1006 
  16   2.0000      -9.997557      -272.0474 
  17   2.0000      -9.996778      -272.0262 
  18   2.0000      -9.981959      -271.6229 
  19   2.0000      -1.040199       -28.3053 
  20   2.0000      -0.980941       -26.6928 
  21   2.0000      -0.964968       -26.2581 
  22   2.0000      -0.818316       -22.2675 
  23   2.0000      -0.809189       -22.0192 
  24   2.0000      -0.757962       -20.6252 
  25   2.0000      -0.726250       -19.7623 
  26   2.0000      -0.704952       -19.1827 
  27   2.0000      -0.700183       -19.0530 
  28   2.0000      -0.688384       -18.7319 
  29   2.0000      -0.617051       -16.7908 
  30   2.0000      -0.611144       -16.6301 
  31   2.0000      -0.582299       -15.8452 
  32   2.0000      -0.573380       -15.6025 
  33   2.0000      -0.566364       -15.4115 
  34   2.0000      -0.552581       -15.0365 
  35   2.0000      -0.517136       -14.0720 
  36   2.0000      -0.492568       -13.4035 
  37   2.0000      -0.476535       -12.9672 
  38   2.0000      -0.463467       -12.6116 
  39   2.0000      -0.440675       -11.9914 
  40   2.0000      -0.428827       -11.6690 
  41   2.0000      -0.425144       -11.5688 
  42   2.0000      -0.421995       -11.4831 
  43   2.0000      -0.415613       -11.3094 
  44   2.0000      -0.406803       -11.0697 
  45   2.0000      -0.399395       -10.8681 
  46   2.0000      -0.390951       -10.6383 
  47   2.0000      -0.388926       -10.5832 
  48   2.0000      -0.384452       -10.4615 
  49   2.0000      -0.383483       -10.4351 
  50   2.0000      -0.367479        -9.9996 
  51   2.0000      -0.359352        -9.7785 
  52   2.0000      -0.343126        -9.3369 
  53   2.0000      -0.336770        -9.1640 
  54   2.0000      -0.332886        -9.0583 
  55   2.0000      -0.324599        -8.8328 
  56   2.0000      -0.324146        -8.8205 
  57   2.0000      -0.319795        -8.7021 
  58   2.0000      -0.312083        -8.4922 
  59   2.0000      -0.309797        -8.4300 
  60   2.0000      -0.295800        -8.0491 
  61   2.0000      -0.253696        -6.9034 
  62   2.0000      -0.246741        -6.7142 
  63   2.0000      -0.246020        -6.6945 
  64   2.0000      -0.240994        -6.5578 
  65   2.0000      -0.237048        -6.4504 
  66   2.0000      -0.221641        -6.0312 
  67   0.0000      -0.103988        -2.8297 
  68   0.0000      -0.057278        -1.5586 
  69   0.0000      -0.053343        -1.4515 
  70   0.0000      -0.047715        -1.2984 
  71   0.0000      -0.042465        -1.1555 
  72   0.0000      -0.010381        -0.2825 
  73   0.0000       0.002681         0.0729 
  74   0.0000       0.007526         0.2048 
  75   0.0000       0.009938         0.2704 
  76   0.0000       0.014451         0.3932 
  77   0.0000       0.023783         0.6472 
  78   0.0000       0.026858         0.7309 
  79   0.0000       0.031905         0.8682 
  80   0.0000       0.034678         0.9436 
  81   0.0000       0.039669         1.0795 
  82   0.0000       0.042864         1.1664 
  83   0.0000       0.046671         1.2700 
  84   0.0000       0.056373         1.5340 
  85   0.0000       0.062187         1.6922 
  86   0.0000       0.062597         1.7033 
  87   0.0000       0.066598         1.8122 
  88   0.0000       0.071911         1.9568 
  89   0.0000       0.074612         2.0303 
  90   0.0000       0.076435         2.0799 
  91   0.0000       0.081408         2.2152 
  92   0.0000       0.084001         2.2858 
  93   0.0000       0.089822         2.4442 
  94   0.0000       0.090787         2.4704 
  95   0.0000       0.096938         2.6378 
  96   0.0000       0.104623         2.8469 
  97   0.0000       0.108082         2.9411 
  98   0.0000       0.111913         3.0453 
  99   0.0000       0.116739         3.1766 
 100   0.0000       0.118604         3.2274 
 101   0.0000       0.122281         3.3274 
 102   0.0000       0.126649         3.4463 
 103   0.0000       0.127279         3.4634 
 104   0.0000       0.132228         3.5981 
 105   0.0000       0.136726         3.7205 
 106   0.0000       0.141209         3.8425 
 107   0.0000       0.144983         3.9452 
 108   0.0000       0.147650         4.0177 
 109   0.0000       0.151934         4.1343 
 110   0.0000       0.154746         4.2108 
 111   0.0000       0.157468         4.2849 
 112   0.0000       0.164937         4.4882 
 113   0.0000       0.167806         4.5662 
 114   0.0000       0.169919         4.6237 
 115   0.0000       0.171229         4.6594 
 116   0.0000       0.177106         4.8193 
 117   0.0000       0.177924         4.8416 
 118   0.0000       0.181911         4.9500 
 119   0.0000       0.186693         5.0802 
 120   0.0000       0.188878         5.1396 
 121   0.0000       0.190808         5.1922 
 122   0.0000       0.192974         5.2511 
 123   0.0000       0.194446         5.2912 
 124   0.0000       0.198264         5.3950 
 125   0.0000       0.200079         5.4444 
 126   0.0000       0.200402         5.4532 
 127   0.0000       0.206566         5.6209 
 128   0.0000       0.210148         5.7184 
 129   0.0000       0.214277         5.8308 
 130   0.0000       0.217183         5.9098 
 131   0.0000       0.217569         5.9203 
 132   0.0000       0.221164         6.0182 
 133   0.0000       0.221463         6.0263 
 134   0.0000       0.226422         6.1612 
 135   0.0000       0.230079         6.2608 
 136   0.0000       0.235123         6.3980 
 137   0.0000       0.237042         6.4502 
 138   0.0000       0.238609         6.4929 
 139   0.0000       0.241174         6.5627 
 140   0.0000       0.242449         6.5974 
 141   0.0000       0.249060         6.7773 
 142   0.0000       0.250754         6.8234 
 143   0.0000       0.254745         6.9320 
 144   0.0000       0.259850         7.0709 
 145   0.0000       0.263167         7.1611 
 146   0.0000       0.266573         7.2538 
 147   0.0000       0.270511         7.3610 
 148   0.0000       0.275255         7.4901 
 149   0.0000       0.278734         7.5847 
 150   0.0000       0.280451         7.6315 
 151   0.0000       0.282478         7.6866 
 152   0.0000       0.287004         7.8098 
 153   0.0000       0.291506         7.9323 
 154   0.0000       0.292522         7.9599 
 155   0.0000       0.295026         8.0281 
 156   0.0000       0.299166         8.1407 
 157   0.0000       0.305028         8.3002 
 158   0.0000       0.309708         8.4276 
 159   0.0000       0.309886         8.4324 
 160   0.0000       0.313341         8.5265 
 161   0.0000       0.319667         8.6986 
 162   0.0000       0.323667         8.8074 
 163   0.0000       0.330332         8.9888 
 164   0.0000       0.331804         9.0289 
 165   0.0000       0.333684         9.0800 
 166   0.0000       0.340243         9.2585 
 167   0.0000       0.342864         9.3298 
 168   0.0000       0.347996         9.4694 
 169   0.0000       0.351730         9.5711 
 170   0.0000       0.355420         9.6715 
 171   0.0000       0.362863         9.8740 
 172   0.0000       0.379056        10.3146 
 173   0.0000       0.388274        10.5655 
 174   0.0000       0.394277        10.7288 
 175   0.0000       0.406583        11.0637 
 176   0.0000       0.416502        11.3336 
 177   0.0000       0.426916        11.6170 
 178   0.0000       0.428834        11.6692 
 179   0.0000       0.437765        11.9122 
 180   0.0000       0.453543        12.3415 
 181   0.0000       0.455322        12.3899 
 182   0.0000       0.471637        12.8339 
 183   0.0000       0.480406        13.0725 
 184   0.0000       0.483715        13.1626 
 185   0.0000       0.494953        13.4684 
 186   0.0000       0.501399        13.6438 
 187   0.0000       0.505932        13.7671 
 188   0.0000       0.515372        14.0240 
 189   0.0000       0.518626        14.1125 
 190   0.0000       0.522275        14.2118 
 191   0.0000       0.529417        14.4062 
 192   0.0000       0.532436        14.4883 
 193   0.0000       0.540058        14.6957 
 194   0.0000       0.544546        14.8179 
 195   0.0000       0.558462        15.1965 
 196   0.0000       0.568258        15.4631 
 197   0.0000       0.571135        15.5414 
 198   0.0000       0.579684        15.7740 
 199   0.0000       0.590269        16.0620 
 200   0.0000       0.591586        16.0979 
 201   0.0000       0.597224        16.2513 
 202   0.0000       0.604673        16.4540 
 203   0.0000       0.611034        16.6271 
 204   0.0000       0.613561        16.6958 
 205   0.0000       0.620509        16.8849 
 206   0.0000       0.626351        17.0439 
 207   0.0000       0.635364        17.2891 
 208   0.0000       0.644064        17.5259 
 209   0.0000       0.651288        17.7225 
 210   0.0000       0.655575        17.8391 
 211   0.0000       0.660594        17.9757 
 212   0.0000       0.664453        18.0807 
 213   0.0000       0.666214        18.1286 
 214   0.0000       0.670947        18.2574 
 215   0.0000       0.675167        18.3722 
 216   0.0000       0.682076        18.5602 
 217   0.0000       0.684959        18.6387 
 218   0.0000       0.693491        18.8708 
 219   0.0000       0.696514        18.9531 
 220   0.0000       0.698175        18.9983 
 221   0.0000       0.709410        19.3040 
 222   0.0000       0.709878        19.3168 
 223   0.0000       0.721393        19.6301 
 224   0.0000       0.727076        19.7847 
 225   0.0000       0.730907        19.8890 
 226   0.0000       0.737889        20.0790 
 227   0.0000       0.742361        20.2007 
 228   0.0000       0.751647        20.4534 
 229   0.0000       0.755014        20.5450 
 230   0.0000       0.764193        20.7948 
 231   0.0000       0.765855        20.8400 
 232   0.0000       0.775452        21.1011 
 233   0.0000       0.786535        21.4027 
 234   0.0000       0.807488        21.9729 
 235   0.0000       0.810757        22.0618 
 236   0.0000       0.821581        22.3563 
 237   0.0000       0.825390        22.4600 
 238   0.0000       0.828834        22.5537 
 239   0.0000       0.836920        22.7738 
 240   0.0000       0.849618        23.1193 
 241   0.0000       0.850445        23.1418 
 242   0.0000       0.860164        23.4063 
 243   0.0000       0.869637        23.6640 
 244   0.0000       0.879622        23.9357 
 245   0.0000       0.895903        24.3788 
 246   0.0000       0.903470        24.5847 
 247   0.0000       0.908539        24.7226 
 248   0.0000       0.914877        24.8951 
 249   0.0000       0.924892        25.1676 
 250   0.0000       0.932767        25.3819 
 251   0.0000       0.945375        25.7250 
 252   0.0000       0.957353        26.0509 
 253   0.0000       0.965484        26.2722 
 254   0.0000       0.984038        26.7770 
 255   0.0000       0.991701        26.9856 
 256   0.0000       0.997191        27.1350 
 257   0.0000       1.005526        27.3618 
 258   0.0000       1.019970        27.7548 
 259   0.0000       1.022644        27.8275 
 260   0.0000       1.032533        28.0966 
 261   0.0000       1.034117        28.1398 
 262   0.0000       1.044613        28.4254 
 263   0.0000       1.055291        28.7159 
 264   0.0000       1.064236        28.9593 
 265   0.0000       1.087687        29.5975 
 266   0.0000       1.090466        29.6731 
 267   0.0000       1.098338        29.8873 
 268   0.0000       1.108185        30.1552 
 269   0.0000       1.114077        30.3156 
 270   0.0000       1.126576        30.6557 
 271   0.0000       1.145784        31.1784 
 272   0.0000       1.150883        31.3171 
 273   0.0000       1.155568        31.4446 
 274   0.0000       1.169724        31.8298 
 275   0.0000       1.180137        32.1132 
 276   0.0000       1.185369        32.2555 
 277   0.0000       1.197904        32.5966 
 278   0.0000       1.213975        33.0339 
 279   0.0000       1.247430        33.9443 
 280   0.0000       1.251042        34.0426 
 281   0.0000       1.262205        34.3463 
 282   0.0000       1.266180        34.4545 
 283   0.0000       1.274744        34.6876 
 284   0.0000       1.299490        35.3609 
 285   0.0000       1.311568        35.6896 
 286   0.0000       1.329485        36.1771 
 287   0.0000       1.341803        36.5123 
 288   0.0000       1.422283        38.7023 
 289   0.0000       1.430566        38.9277 
 290   0.0000       1.448249        39.4089 
 291   0.0000       1.452753        39.5314 
 292   0.0000       1.458302        39.6824 
 293   0.0000       1.468459        39.9588 
 294   0.0000       1.471374        40.0381 
 295   0.0000       1.478378        40.2287 
 296   0.0000       1.485606        40.4254 
 297   0.0000       1.491599        40.5885 
 298   0.0000       1.499998        40.8170 
 299   0.0000       1.505150        40.9572 
 300   0.0000       1.508659        41.0527 
 301   0.0000       1.520912        41.3861 
 302   0.0000       1.526130        41.5281 
 303   0.0000       1.536105        41.7995 
 304   0.0000       1.543341        41.9964 
 305   0.0000       1.551510        42.2187 
 306   0.0000       1.553544        42.2741 
 307   0.0000       1.564042        42.5597 
 308   0.0000       1.575387        42.8685 
 309   0.0000       1.587414        43.1957 
 310   0.0000       1.596258        43.4364 
 311   0.0000       1.609100        43.7858 
 312   0.0000       1.610627        43.8274 
 313   0.0000       1.629934        44.3528 
 314   0.0000       1.643622        44.7252 
 315   0.0000       1.654597        45.0239 
 316   0.0000       1.663548        45.2675 
 317   0.0000       1.670804        45.4649 
 318   0.0000       1.687072        45.9076 
 319   0.0000       1.700565        46.2747 
 320   0.0000       1.708355        46.4867 
 321   0.0000       1.721828        46.8533 
 322   0.0000       1.728424        47.0328 
 323   0.0000       1.736827        47.2615 
 324   0.0000       1.741501        47.3887 
 325   0.0000       1.754329        47.7377 
 326   0.0000       1.760577        47.9077 
 327   0.0000       1.767756        48.1031 
 328   0.0000       1.771800        48.2131 
 329   0.0000       1.784783        48.5664 
 330   0.0000       1.789909        48.7059 
 331   0.0000       1.801293        49.0157 
 332   0.0000       1.808687        49.2169 
 333   0.0000       1.818391        49.4809 
 334   0.0000       1.841877        50.1200 
 335   0.0000       1.871879        50.9364 
 336   0.0000       1.877493        51.0892 
 337   0.0000       1.887418        51.3593 
 338   0.0000       1.889696        51.4212 
 339   0.0000       1.898302        51.6554 
 340   0.0000       1.908911        51.9441 
 341   0.0000       1.909257        51.9535 
 342   0.0000       1.924983        52.3815 
 343   0.0000       1.937823        52.7308 
 344   0.0000       1.942235        52.8509 
 345   0.0000       1.953599        53.1601 
 346   0.0000       1.958521        53.2941 
 347   0.0000       1.969728        53.5990 
 348   0.0000       1.987373        54.0792 
 349   0.0000       1.993328        54.2412 
 350   0.0000       1.999448        54.4077 
 351   0.0000       2.008643        54.6580 
 352   0.0000       2.014083        54.8060 
 353   0.0000       2.027455        55.1698 
 354   0.0000       2.052584        55.8537 
 355   0.0000       2.061990        56.1096 
 356   0.0000       2.070665        56.3457 
 357   0.0000       2.094095        56.9832 
 358   0.0000       2.103399        57.2364 
 359   0.0000       2.109572        57.4044 
 360   0.0000       2.139888        58.2293 
 361   0.0000       2.159609        58.7660 
 362   0.0000       2.172298        59.1112 
 363   0.0000       2.178014        59.2668 
 364   0.0000       2.200359        59.8748 
 365   0.0000       2.204985        60.0007 
 366   0.0000       2.263401        61.5903 
 367   0.0000       2.288790        62.2811 
 368   0.0000       2.299000        62.5590 
 369   0.0000       2.314174        62.9719 
 370   0.0000       2.334479        63.5244 
 371   0.0000       2.360706        64.2381 
 372   0.0000       2.390828        65.0577 
 373   0.0000       2.397861        65.2491 
 374   0.0000       2.416320        65.7514 
 375   0.0000       2.420626        65.8686 
 376   0.0000       2.426526        66.0291 
 377   0.0000       2.435839        66.2825 
 378   0.0000       2.440487        66.4090 
 379   0.0000       2.494890        67.8894 
 380   0.0000       2.504854        68.1605 
 381   0.0000       2.528012        68.7907 
 382   0.0000       2.560711        69.6805 
 383   0.0000       2.597249        70.6747 
 384   0.0000       2.598815        70.7173 
 385   0.0000       2.619082        71.2688 
 386   0.0000       2.633337        71.6567 
 387   0.0000       2.639135        71.8145 
 388   0.0000       2.643226        71.9258 
 389   0.0000       2.657000        72.3006 
 390   0.0000       2.660467        72.3950 
 391   0.0000       2.668996        72.6271 
 392   0.0000       2.697841        73.4120 
 393   0.0000       2.724434        74.1356 
 394   0.0000       2.727797        74.2271 
 395   0.0000       2.731838        74.3371 
 396   0.0000       2.737191        74.4828 
 397   0.0000       2.746345        74.7318 
 398   0.0000       2.759949        75.1020 
 399   0.0000       2.767503        75.3076 
 400   0.0000       2.773155        75.4614 
 401   0.0000       2.777912        75.5908 
 402   0.0000       2.786746        75.8312 
 403   0.0000       2.794873        76.0523 
 404   0.0000       2.800185        76.1969 
 405   0.0000       2.815346        76.6095 
 406   0.0000       2.819548        76.7238 
 407   0.0000       2.820684        76.7547 
 408   0.0000       2.827794        76.9482 
 409   0.0000       2.836619        77.1883 
 410   0.0000       2.845300        77.4245 
 411   0.0000       2.850731        77.5723 
 412   0.0000       2.854166        77.6658 
 413   0.0000       2.861613        77.8685 
 414   0.0000       2.877663        78.3052 
 415   0.0000       2.887097        78.5619 
 416   0.0000       2.898386        78.8691 
 417   0.0000       2.910481        79.1982 
 418   0.0000       2.924236        79.5725 
 419   0.0000       2.938111        79.9501 
 420   0.0000       2.945139        80.1413 
 421   0.0000       2.950206        80.2792 
 422   0.0000       2.978426        81.0471 
 423   0.0000       2.988966        81.3339 
 424   0.0000       3.005235        81.7766 
 425   0.0000       3.037334        82.6501 
 426   0.0000       3.056978        83.1846 
 427   0.0000       3.072325        83.6022 
 428   0.0000       3.092654        84.1554 
 429   0.0000       3.103680        84.4554 
 430   0.0000       3.110699        84.6464 
 431   0.0000       3.150149        85.7199 
 432   0.0000       3.164055        86.0983 
 433   0.0000       3.177789        86.4720 
 434   0.0000       3.201737        87.1237 
 435   0.0000       3.246818        88.3504 
 436   0.0000       3.258744        88.6749 
 437   0.0000       3.302064        89.8537 
 438   0.0000       3.311540        90.1116 
 439   0.0000       3.321622        90.3859 
 440   0.0000       3.344746        91.0152 
 441   0.0000       3.353039        91.2408 
 442   0.0000       3.372217        91.7627 
 443   0.0000       3.389706        92.2386 
 444   0.0000       3.476881        94.6108 
 445   0.0000       3.486616        94.8756 
 446   0.0000       3.499071        95.2146 
 447   0.0000       3.511758        95.5598 
 448   0.0000       3.524920        95.9179 
 449   0.0000       3.545005        96.4645 
 450   0.0000       3.601992        98.0152 
 451   0.0000       3.624701        98.6331 
 452   0.0000       3.656497        99.4984 
 453   0.0000       3.666563        99.7723 
 454   0.0000       3.682205       100.1979 
 455   0.0000       3.806311       103.5750 
 456   0.0000       3.826850       104.1339 
 457   0.0000       3.838373       104.4474 
 458   0.0000       3.857970       104.9807 
 459   0.0000       3.986629       108.4817 
 460   0.0000       4.002204       108.9055 
 461   0.0000       4.031891       109.7133 
 462   0.0000       4.035459       109.8104 
 463   0.0000       4.039370       109.9168 
 464   0.0000       4.113310       111.9289 
 465   0.0000       4.145031       112.7920 
 466   0.0000       4.145209       112.7969 
 467   0.0000       4.160777       113.2205 
 468   0.0000       4.194667       114.1427 
 469   0.0000       4.263491       116.0155 
 470   0.0000       4.336098       117.9912 
 471   0.0000       4.455865       121.2503 
 472   0.0000       4.808643       130.8498 
 473   0.0000       4.823257       131.2475 
 474   0.0000       4.993818       135.8887 
 475   0.0000       5.031900       136.9250 
 476   0.0000       5.044812       137.2763 
 477   0.0000       5.122970       139.4031 
 478   0.0000       5.194780       141.3571 
 479   0.0000       5.323116       144.8494 
 480   0.0000       5.530537       150.4936 
 481   0.0000       5.696018       154.9965 
 482   0.0000       5.825150       158.5104 
 483   0.0000      23.573517       641.4680 
 484   0.0000      23.659142       643.7980 
 485   0.0000      23.778063       647.0340 
 486   0.0000      23.847463       648.9225 
 487   0.0000      23.855598       649.1438 
 488   0.0000      23.946552       651.6188 
 489   0.0000      23.952247       651.7738 
 490   0.0000      23.960593       652.0009 
 491   0.0000      23.961270       652.0193 
 492   0.0000      23.973421       652.3499 
[...]
      py      :     0.004936
 30 H s       :     0.806681  s :     0.806681
      pz      :     0.010450  p :     0.024023
      px      :     0.005253
      py      :     0.008320
 31 H s       :     0.806931  s :     0.806931
      pz      :     0.006996  p :     0.024208
      px      :     0.008544
      py      :     0.008668
 32 H s       :     0.781846  s :     0.781846
      pz      :     0.005873  p :     0.024519
      px      :     0.013720
      py      :     0.004925


                     *******************************
                     * LOEWDIN POPULATION ANALYSIS *
                     *******************************

----------------------
LOEWDIN ATOMIC CHARGES
----------------------
   0 H :    0.115626
   1 C :   -0.112692
   2 C :   -0.075774
   3 C :   -0.006365
   4 O :   -0.052684
   5 O :   -0.208559
   6 C :   -0.117692
   7 C :   -0.027795
   8 C :   -0.099010
   9 C :   -0.015673
  10 C :   -0.043707
  11 C :   -0.032148
  12 C :    0.020741
  13 O :   -0.222005
  14 C :   -0.112010
  15 C :   -0.022782
  16 C :   -0.056789
  17 C :   -0.041830
  18 C :   -0.057184
  19 C :   -0.036283
  20 H :    0.071012
  21 H :    0.073484
  22 H :    0.077254
  23 H :    0.153532
  24 H :    0.112169
  25 H :    0.095836
  26 H :    0.084778
  27 H :    0.094548
  28 H :    0.094745
  29 H :    0.082622
  30 H :    0.082573
  31 H :    0.083460
  32 H :    0.098600

-------------------------------
LOEWDIN REDUCED ORBITAL CHARGES
-------------------------------
  0 H s       :     0.813075  s :     0.813075
      pz      :     0.023851  p :     0.071299
      px      :     0.034406
      py      :     0.013042
  1 C s       :     2.785671  s :     2.785671
      pz      :     1.048609  p :     3.175928
      px      :     1.086501
      py      :     1.040818
      dz2     :     0.020064  d :     0.151093
      dxz     :     0.031629
      dyz     :     0.041080
      dx2y2   :     0.037279
      dxy     :     0.021042
  2 C s       :     2.794874  s :     2.794874
      pz      :     1.065986  p :     3.185762
      px      :     1.043686
      py      :     1.076091
      dz2     :     0.010759  d :     0.095137
      dxz     :     0.026120
      dyz     :     0.021785
      dx2y2   :     0.026816
      dxy     :     0.009657
  3 C s       :     2.784067  s :     2.784067
      pz      :     0.937901  p :     2.814226
      px      :     0.860259
      py      :     1.016067
      dz2     :     0.055664  d :     0.408072
      dxz     :     0.065104
      dyz     :     0.106799
      dx2y2   :     0.095747
      dxy     :     0.084758
  4 O s       :     3.406047  s :     3.406047
      pz      :     1.639882  p :     4.627813
      px      :     1.538893
      py      :     1.449038
      dz2     :     0.002868  d :     0.018824
      dxz     :     0.006039
      dyz     :     0.002983
      dx2y2   :     0.004533
      dxy     :     0.002402
  5 O s       :     3.508076  s :     3.508076
      pz      :     1.648164  p :     4.677437
      px      :     1.545736
      py      :     1.483537
      dz2     :     0.003288  d :     0.023046
      dxz     :     0.001149
      dyz     :     0.004141
      dx2y2   :     0.006740
      dxy     :     0.007728
  6 C s       :     2.790577  s :     2.790577
      pz      :     1.031021  p :     3.164612
      px      :     1.062296
      py      :     1.071294
      dz2     :     0.023189  d :     0.162502
      dxz     :     0.024232
      dyz     :     0.033686
      dx2y2   :     0.041775
      dxy     :     0.039620
  7 C s       :     2.778337  s :     2.778337
      pz      :     1.016948  p :     3.117353
      px      :     1.022487
      py      :     1.077918
      dz2     :     0.019076  d :     0.132104
      dxz     :     0.017417
      dyz     :     0.029041
      dx2y2   :     0.029540
      dxy     :     0.037030
  8 C s       :     2.782344  s :     2.782344
      pz      :     1.009774  p :     3.158709
      px      :     1.029151
      py      :     1.119784
      dz2     :     0.017054  d :     0.157957
      dxz     :     0.023995
      dyz     :     0.034130
      dx2y2   :     0.041889
      dxy     :     0.040890
  9 C s       :     2.790860  s :     2.790860
      pz      :     0.992482  p :     3.093553
      px      :     1.036250
      py      :     1.064821
      dz2     :     0.019830  d :     0.131260
      dxz     :     0.021657
      dyz     :     0.024604
      dx2y2   :     0.034101
      dxy     :     0.031067
 10 C s       :     2.798531  s :     2.798531
      pz      :     1.003620  p :     3.114084
      px      :     1.029295
      py      :     1.081169
      dz2     :     0.017623  d :     0.131092
      dxz     :     0.017382
      dyz     :     0.028975
      dx2y2   :     0.030938
      dxy     :     0.036173
 11 C s       :     2.795242  s :     2.795242
      pz      :     0.987615  p :     3.105074
      px      :     1.012529
      py      :     1.104930
      dz2     :     0.013635  d :     0.131832
      dxz     :     0.015618
      dyz     :     0.030208
      dx2y2   :     0.036574
      dxy     :     0.035797
 12 C s       :     2.789505  s :     2.789505
      pz      :     0.943555  p :     2.883454
      px      :     0.937647
      py      :     1.002252
      dz2     :     0.040675  d :     0.306300
      dxz     :     0.034560
      dyz     :     0.082047
      dx2y2   :     0.074961
      dxy     :     0.074057
 13 O s       :     3.520217  s :     3.520217
      pz      :     1.639501  p :     4.679918
      px      :     1.557510
      py      :     1.482908
      dz2     :     0.003121  d :     0.021870
      dxz     :     0.001117
      dyz     :     0.003823
      dx2y2   :     0.006103
      dxy     :     0.007706
 14 C s       :     2.784499  s :     2.784499
      pz      :     1.027322  p :     3.170021
      px      :     1.114595
      py      :     1.028104
      dz2     :     0.022311  d :     0.157490
      dxz     :     0.037273
      dyz     :     0.025604
      dx2y2   :     0.036231
      dxy     :     0.036070
 15 C s       :     2.792889  s :     2.792889
      pz      :     1.020891  p :     3.098747
      px      :     1.072311
      py      :     1.005544
      dz2     :     0.022098  d :     0.131146
      dxz     :     0.034884
      dyz     :     0.018157
      dx2y2   :     0.026282
      dxy     :     0.029727
 16 C s       :     2.801497  s :     2.801497
      pz      :     1.034134  p :     3.124571
      px      :     1.063168
      py      :     1.027268
      dz2     :     0.024428  d :     0.130722
      dxz     :     0.028510
      dyz     :     0.023442
      dx2y2   :     0.030419
      dxy     :     0.023923
 17 C s       :     2.805962  s :     2.805962
      pz      :     1.005644  p :     3.105054
      px      :     1.100520
      py      :     0.998890
      dz2     :     0.017906  d :     0.130813
      dxz     :     0.032581
      dyz     :     0.016630
      dx2y2   :     0.031596
      dxy     :     0.032100
 18 C s       :     2.800896  s :     2.800896
      pz      :     1.032920  p :     3.125730
      px      :     1.086092
      py      :     1.006719
      dz2     :     0.022123  d :     0.130557
      dxz     :     0.035197
      dyz     :     0.017821
      dx2y2   :     0.025484
      dxy     :     0.029932
 19 C s       :     2.791481  s :     2.791481
      pz      :     1.045010  p :     3.113216
      px      :     1.064590
      py      :     1.003616
      dz2     :     0.025643  d :     0.131587
      dxz     :     0.028838
      dyz     :     0.023083
      dx2y2   :     0.030807
      dxy     :     0.023216
 20 H s       :     0.860328  s :     0.860328
      pz      :     0.015773  p :     0.068660
      px      :     0.013876
      py      :     0.039010
 21 H s       :     0.858295  s :     0.858295
      pz      :     0.031234  p :     0.068221
      px      :     0.013618
      py      :     0.023368
 22 H s       :     0.854187  s :     0.854187
      pz      :     0.021692  p :     0.068559
      px      :     0.033789
      py      :     0.013079
 23 H s       :     0.664882  s :     0.664882
      pz      :     0.042243  p :     0.181586
      px      :     0.042591
      py      :     0.096752
 24 H s       :     0.815139  s :     0.815139
      pz      :     0.017941  p :     0.072692
      px      :     0.025113
      py      :     0.029638
 25 H s       :     0.832566  s :     0.832566
      pz      :     0.015417  p :     0.071598
      px      :     0.013998
      py      :     0.042183
 26 H s       :     0.844874  s :     0.844874
      pz      :     0.017403  p :     0.070348
      px      :     0.024051
      py      :     0.028893
 27 H s       :     0.834947  s :     0.834947
      pz      :     0.026827  p :     0.070505
      px      :     0.030340
      py      :     0.013338
 28 H s       :     0.833713  s :     0.833713
      pz      :     0.019938  p :     0.071542
      px      :     0.025083
      py      :     0.026521
 29 H s       :     0.847084  s :     0.847084
      pz      :     0.015431  p :     0.070294
      px      :     0.041880
      py      :     0.012983
 30 H s       :     0.847176  s :     0.847176
      pz      :     0.031073  p :     0.070251
      px      :     0.015242
      py      :     0.023937
 31 H s       :     0.846187  s :     0.846187
      pz      :     0.019787  p :     0.070353
      px      :     0.025802
      py      :     0.024764
 32 H s       :     0.829089  s :     0.829089
      pz      :     0.015844  p :     0.072310
      px      :     0.043501
      py      :     0.012965


                      *****************************
                      * MAYER POPULATION ANALYSIS *
                      *****************************

  NA   - Mulliken gross atomic population
  ZA   - Total nuclear charge
  QA   - Mulliken gross atomic charge
  VA   - Mayer's total valence
  BVA  - Mayer's bonded valence
  FA   - Mayer's free valence

  ATOM       NA         ZA         QA         VA         BVA        FA
  0 H      0.7671     1.0000     0.2329     0.9279     0.9279     0.0000
  1 C      6.0177     6.0000    -0.0177     2.9288     2.9288    -0.0000
  2 C      6.7102     6.0000    -0.7102     3.7124     3.7124    -0.0000
  3 C      6.0962     6.0000    -0.0962     4.3304     4.3304     0.0000
  4 O      8.1406     8.0000    -0.1406     2.0479     2.0479     0.0000
  5 O      8.3104     8.0000    -0.3104     2.0503     2.0503    -0.0000
  6 C      4.6803     6.0000     1.3197     0.6451     0.6451    -0.0000
  7 C      8.7473     6.0000    -2.7473     7.4065     7.4065     0.0000
  8 C      4.2448     6.0000     1.7552     0.7376     0.7376     0.0000
  9 C      5.8653     6.0000     0.1347     2.8195     2.8195     0.0000
 10 C      6.3480     6.0000    -0.3480     3.0868     3.0868    -0.0000
 11 C      6.1045     6.0000    -0.1045     2.8836     2.8836     0.0000
 12 C      7.1759     6.0000    -1.1759     4.1524     4.1524    -0.0000
 13 O      8.2461     8.0000    -0.2461     1.9230     1.9230    -0.0000
 14 C      4.3317     6.0000     1.6683     1.8436     1.8436     0.0000
 15 C      5.9437     6.0000     0.0563     2.8990     2.8990     0.0000
 16 C      6.1947     6.0000    -0.1947     3.5419     3.5419    -0.0000
 17 C      6.1536     6.0000    -0.1536     3.8324     3.8324     0.0000
 18 C      6.3322     6.0000    -0.3322     3.6482     3.6482     0.0000
 19 C      7.0517     6.0000    -1.0517     5.0189     5.0189     0.0000
 20 H      0.8187     1.0000     0.1813     0.9335     0.9335     0.0000
 21 H      0.8188     1.0000     0.1812     0.9438     0.9438     0.0000
 22 H      0.7972     1.0000     0.2028     0.9324     0.9324     0.0000
 23 H      0.6819     1.0000     0.3181     0.9675     0.9675    -0.0000
 24 H      0.7948     1.0000     0.2052     0.9539     0.9539    -0.0000
 25 H      0.8314     1.0000     0.1686     0.9598     0.9598     0.0000
 26 H      0.8284     1.0000     0.1716     0.9443     0.9443    -0.0000
 27 H      0.8296     1.0000     0.1704     0.9551     0.9551     0.0000
 28 H      0.8373     1.0000     0.1627     0.9662     0.9662     0.0000
 29 H      0.8317     1.0000     0.1683     0.9486     0.9486    -0.0000
 30 H      0.8307     1.0000     0.1693     0.9492     0.9492    -0.0000
 31 H      0.8311     1.0000     0.1689     0.9517     0.9517     0.0000
 32 H      0.8064     1.0000     0.1936     0.9458     0.9458    -0.0000

  Mayer bond orders larger than 0.100000
B(  0-H ,  1-C ) :   1.0854 B(  0-H ,  6-C ) :  -0.3572 B(  0-H ,  7-C ) :   0.1964 
B(  1-C ,  2-C ) :   0.9590 B(  1-C ,  3-C ) :   0.8589 B(  1-C ,  4-O ) :  -0.3865 
B(  1-C ,  7-C ) :   0.8174 B(  1-C , 11-C ) :  -0.4189 B(  1-C , 22-H ) :   0.1533 
B(  2-C ,  3-C ) :  -0.1167 B(  2-C ,  6-C ) :  -0.5694 B(  2-C ,  7-C ) :   0.6267 
B(  2-C , 11-C ) :  -0.1370 B(  2-C , 20-H ) :   0.9790 B(  2-C , 21-H ) :   1.0128 
B(  2-C , 22-H ) :   0.9613 B(  3-C ,  4-O ) :   1.4350 B(  3-C ,  5-O ) :   2.1797 
B(  3-C ,  6-C ) :  -0.6141 B(  3-C ,  7-C ) :   0.9686 B(  3-C ,  8-C ) :  -0.1376 
B(  3-C , 11-C ) :  -0.2010 B(  4-O ,  6-C ) :   0.4764 B(  4-O ,  7-C ) :   0.2187 
B(  4-O ,  8-C ) :  -0.2156 B(  4-O , 11-C ) :  -0.1826 B(  4-O , 23-H ) :   0.8374 
B(  5-O ,  7-C ) :  -0.2290 B(  6-C ,  8-C ) :   0.5744 B(  6-C ,  9-C ) :   0.1194 
B(  6-C , 10-C ) :   0.2022 B(  6-C , 11-C ) :   1.0978 B(  6-C , 12-C ) :  -0.1124 
B(  6-C , 14-C ) :   0.7076 B(  6-C , 15-C ) :  -1.1986 B(  6-C , 16-C ) :   0.2042 
B(  6-C , 17-C ) :  -0.1642 B(  6-C , 18-C ) :   0.4460 B(  6-C , 19-C ) :  -0.2408 
B(  6-C , 22-H ) :  -0.2257 B(  6-C , 23-H ) :   0.1808 B(  7-C ,  8-C ) :  -0.1337 
B(  7-C ,  9-C ) :   0.3182 B(  7-C , 10-C ) :  -0.3695 B(  7-C , 11-C ) :   1.0410 
B(  7-C , 12-C ) :   2.0644 B(  7-C , 14-C ) :  -0.6599 B(  7-C , 15-C ) :  -0.5396 
B(  7-C , 16-C ) :  -0.3586 B(  7-C , 17-C ) :   0.2203 B(  7-C , 19-C ) :   2.1348 
B(  7-C , 24-H ) :   0.7049 B(  7-C , 27-H ) :   0.1100 B(  8-C ,  9-C ) :   1.5508 
B(  8-C , 11-C ) :  -0.1375 B(  8-C , 12-C ) :  -0.4669 B(  8-C , 14-C ) :   0.6810 
B(  8-C , 15-C ) :  -0.7632 B(  8-C , 16-C ) :   0.2163 B(  8-C , 17-C ) :  -0.1887 
B(  8-C , 18-C ) :   0.2988 B(  8-C , 19-C ) :  -0.5234 B(  9-C , 10-C ) :   1.1046 
B(  9-C , 11-C ) :  -0.2665 B(  9-C , 12-C ) :  -0.5662 B(  9-C , 14-C ) :  -1.1893 
B(  9-C , 15-C ) :   2.2647 B(  9-C , 16-C ) :  -0.1806 B(  9-C , 17-C ) :   0.1934 
B(  9-C , 18-C ) :  -0.8385 B(  9-C , 19-C ) :  -0.6768 B(  9-C , 25-H ) :   0.9487 
B(  9-C , 26-H ) :  -0.1510 B( 10-C , 11-C ) :   1.0666 B( 10-C , 14-C ) :   0.3627 
B( 10-C , 15-C ) :  -0.3546 B( 10-C , 18-C ) :   0.1914 B( 10-C , 19-C ) :  -0.2219 
B( 10-C , 26-H ) :   1.0718 B( 11-C , 14-C ) :  -0.2036 B( 11-C , 15-C ) :   0.1904 
B( 11-C , 24-H ) :   0.1020 B( 11-C , 27-H ) :   0.9178 B( 12-C , 13-O ) :   1.8967 
B( 12-C , 14-C ) :  -0.2704 B( 12-C , 15-C ) :  -0.1369 B( 12-C , 16-C ) :  -0.1356 
B( 12-C , 18-C ) :   0.1548 B( 12-C , 19-C ) :   1.4411 B( 12-C , 24-H ) :   0.1069 
B( 12-C , 28-H ) :   0.1741 B( 14-C , 15-C ) :   1.4916 B( 14-C , 19-C ) :   0.9843 
B( 14-C , 28-H ) :  -0.1642 B( 15-C , 16-C ) :   1.2386 B( 15-C , 17-C ) :   0.2019 
B( 15-C , 19-C ) :  -0.1143 B( 15-C , 28-H ) :   0.9945 B( 15-C , 29-H ) :  -0.1336 
B( 16-C , 17-C ) :   1.3889 B( 16-C , 29-H ) :   1.0346 B( 17-C , 18-C ) :   1.3324 
B( 17-C , 30-H ) :   0.9753 B( 18-C , 19-C ) :   1.2150 B( 18-C , 31-H ) :   1.0285 
B( 19-C , 31-H ) :  -0.1110 B( 19-C , 32-H ) :   0.9984 

-------
TIMINGS
-------

Total SCF time: 0 days 0 hours 2 min 55 sec 

Total time                  ....     175.992 sec
Sum of individual times     ....     175.285 sec  ( 99.6%)

Fock matrix formation       ....     154.630 sec  ( 87.9%)
  Split-RI-J                ....      35.806 sec  ( 23.2% of F)
  XC integration            ....      83.577 sec  ( 54.0% of F)
    Basis function eval.    ....      11.976 sec  ( 14.3% of XC)
    Density eval.           ....      41.653 sec  ( 49.8% of XC)
    XC-Functional eval.     ....       1.758 sec  (  2.1% of XC)
    XC-Potential eval.      ....      24.358 sec  ( 29.1% of XC)
Diagonalization             ....       0.026 sec  (  0.0%)
Density matrix formation    ....       0.049 sec  (  0.0%)
Population analysis         ....       0.031 sec  (  0.0%)
Initial guess               ....       0.026 sec  (  0.0%)
Orbital Transformation      ....       0.150 sec  (  0.1%)
Orbital Orthonormalization  ....       0.019 sec  (  0.0%)
DIIS solution               ....       0.010 sec  (  0.0%)
SOSCF solution              ....       0.433 sec  (  0.2%)
Grid generation             ....       1.289 sec  (  0.7%)

Maximum memory used throughout the entire SCF-calculation: 190.5 MB

-------------------------   --------------------
FINAL SINGLE POINT ENERGY      -844.212133003557
-------------------------   --------------------

                                *** OPTIMIZATION RUN DONE ***

                            ***************************************
                            *     ORCA property calculations      *
                            ***************************************

                                    ---------------------
                                    Active property flags
                                    ---------------------
   (+) Dipole Moment


------------------------------------------------------------------------------
                       ORCA ELECTRIC PROPERTIES CALCULATION
------------------------------------------------------------------------------

Dipole Moment Calculation                       ... on
Quadrupole Moment Calculation                   ... off
Polarizability Calculation                      ... off
GBWName                                         ... Dexketoprofen\Dexketoprofen_TPSS_6-311+G\Dexketoprofen_TPSS_6-311+G.orcainp.gbw
Electron density                                ... Dexketoprofen\Dexketoprofen_TPSS_6-311+G\Dexketoprofen_TPSS_6-311+G.orcainp.scfp
The origin for moment calculation is the CENTER OF MASS  = ( 7.160096,  2.811199 -4.020490)

-------------
DIPOLE MOMENT
-------------
                                X             Y             Z
Electronic contribution:     -0.88305       3.68039      -3.70567
Nuclear contribution   :     -0.38422      -3.34114       4.41061
                        -----------------------------------------
Total Dipole Moment    :     -1.26727       0.33925       0.70494
                        -----------------------------------------
Magnitude (a.u.)       :      1.48929
Magnitude (Debye)      :      3.78549



--------------------
Rotational spectrum 
--------------------
 
Rotational constants in cm-1:     0.016923     0.008988     0.006728 
Rotational constants in MHz :   507.350494   269.440550   201.692210 

 Dipole components along the rotational axes: 
x,y,z [a.u.] :    -1.182724    -0.663806     0.615243 
x,y,z [Debye]:    -3.006246    -1.687260     1.563823 

 

Timings for individual modules:

Sum of individual times         ...     2528.052 sec (=  42.134 min)
GTO integral calculation        ...        4.029 sec (=   0.067 min)   0.2 %
SCF iterations                  ...     2239.346 sec (=  37.322 min)  88.6 %
SCF Gradient evaluation         ...      283.807 sec (=   4.730 min)  11.2 %
Geometry relaxation             ...        0.870 sec (=   0.015 min)   0.0 %
                             ****ORCA TERMINATED NORMALLY****
TOTAL RUN TIME: 0 days 0 hours 42 minutes 9 seconds 213 msec
