
                                 *****************
                                 * O   R   C   A *
                                 *****************

                                            #,                                       
                                            ###                                      
                                            ####                                     
                                            #####                                    
                                            ######                                   
                                           ########,                                 
                                     ,,################,,,,,                         
                               ,,#################################,,                 
                          ,,##########################################,,             
                       ,#########################################, ''#####,          
                    ,#############################################,,   '####,        
                  ,##################################################,,,,####,       
                ,###########''''           ''''###############################       
              ,#####''   ,,,,##########,,,,          '''####'''          '####       
            ,##' ,,,,###########################,,,                        '##       
           ' ,,###''''                  '''############,,,                           
         ,,##''                                '''############,,,,        ,,,,,,###''
      ,#''                                            '''#######################'''  
     '                                                          ''''####''''         
             ,#######,   #######,   ,#######,      ##                                
            ,#'     '#,  ##    ##  ,#'     '#,    #''#        ######   ,####,        
            ##       ##  ##   ,#'  ##            #'  '#       #        #'  '#        
            ##       ##  #######   ##           ,######,      #####,   #    #        
            '#,     ,#'  ##    ##  '#,     ,#' ,#      #,         ##   #,  ,#        
             '#######'   ##     ##  '#######'  #'      '#     #####' # '####'        



                  #######################################################
                  #                        -***-                        #
                  #          Department of theory and spectroscopy      #
                  #    Directorship and core code : Frank Neese         #
                  #        Max Planck Institute fuer Kohlenforschung    #
                  #                Kaiser Wilhelm Platz 1               #
                  #                 D-45470 Muelheim/Ruhr               #
                  #                      Germany                        #
                  #                                                     #
                  #                  All rights reserved                #
                  #                        -***-                        #
                  #######################################################



                         Program Version 5.0.4 -  RELEASE  -

 With contributions from (in alphabetic order):
   Daniel Aravena         : Magnetic Suceptibility
   Michael Atanasov       : Ab Initio Ligand Field Theory (pilot matlab implementation)
   Alexander A. Auer      : GIAO ZORA, VPT2 properties, NMR spectrum
   Ute Becker             : Parallelization
   Giovanni Bistoni       : ED, misc. LED, open-shell LED, HFLD
   Martin Brehm           : Molecular dynamics
   Dmytro Bykov           : SCF Hessian
   Vijay G. Chilkuri      : MRCI spin determinant printing, contributions to CSF-ICE
   Dipayan Datta          : RHF DLPNO-CCSD density
   Achintya Kumar Dutta   : EOM-CC, STEOM-CC
   Dmitry Ganyushin       : Spin-Orbit,Spin-Spin,Magnetic field MRCI
   Miquel Garcia          : C-PCM and meta-GGA Hessian, CC/C-PCM, Gaussian charge scheme
   Yang Guo               : DLPNO-NEVPT2, F12-NEVPT2, CIM, IAO-localization
   Andreas Hansen         : Spin unrestricted coupled pair/coupled cluster methods
   Benjamin Helmich-Paris : MC-RPA, TRAH-SCF, COSX integrals
   Lee Huntington         : MR-EOM, pCC
   Robert Izsak           : Overlap fitted RIJCOSX, COSX-SCS-MP3, EOM
   Marcus Kettner         : VPT2
   Christian Kollmar      : KDIIS, OOCD, Brueckner-CCSD(T), CCSD density, CASPT2, CASPT2-K
   Simone Kossmann        : Meta GGA functionals, TD-DFT gradient, OOMP2, MP2 Hessian
   Martin Krupicka        : Initial AUTO-CI
   Lucas Lang             : DCDCAS
   Marvin Lechner         : AUTO-CI (C++ implementation), FIC-MRCC
   Dagmar Lenk            : GEPOL surface, SMD
   Dimitrios Liakos       : Extrapolation schemes; Compound Job, initial MDCI parallelization
   Dimitrios Manganas     : Further ROCIS development; embedding schemes
   Dimitrios Pantazis     : SARC Basis sets
   Anastasios Papadopoulos: AUTO-CI, single reference methods and gradients
   Taras Petrenko         : DFT Hessian,TD-DFT gradient, ASA, ECA, R-Raman, ABS, FL, XAS/XES, NRVS
   Peter Pinski           : DLPNO-MP2, DLPNO-MP2 Gradient
   Christoph Reimann      : Effective Core Potentials
   Marius Retegan         : Local ZFS, SOC
   Christoph Riplinger    : Optimizer, TS searches, QM/MM, DLPNO-CCSD(T), (RO)-DLPNO pert. Triples
   Tobias Risthaus        : Range-separated hybrids, TD-DFT gradient, RPA, STAB
   Michael Roemelt        : Original ROCIS implementation
   Masaaki Saitow         : Open-shell DLPNO-CCSD energy and density
   Barbara Sandhoefer     : DKH picture change effects
   Avijit Sen             : IP-ROCIS
   Kantharuban Sivalingam : CASSCF convergence, NEVPT2, FIC-MRCI
   Bernardo de Souza      : ESD, SOC TD-DFT
   Georgi Stoychev        : AutoAux, RI-MP2 NMR, DLPNO-MP2 response
   Willem Van den Heuvel  : Paramagnetic NMR
   Boris Wezisla          : Elementary symmetry handling
   Frank Wennmohs         : Technical directorship


 We gratefully acknowledge several colleagues who have allowed us to
 interface, adapt or use parts of their codes:
   Stefan Grimme, W. Hujo, H. Kruse, P. Pracht,  : VdW corrections, initial TS optimization,
                  C. Bannwarth, S. Ehlert          DFT functionals, gCP, sTDA/sTD-DF
   Ed Valeev, F. Pavosevic, A. Kumar             : LibInt (2-el integral package), F12 methods
   Garnet Chan, S. Sharma, J. Yang, R. Olivares  : DMRG
   Ulf Ekstrom                                   : XCFun DFT Library
   Mihaly Kallay                                 : mrcc  (arbitrary order and MRCC methods)
   Jiri Pittner, Ondrej Demel                    : Mk-CCSD
   Frank Weinhold                                : gennbo (NPA and NBO analysis)
   Christopher J. Cramer and Donald G. Truhlar   : smd solvation model
   Lars Goerigk                                  : TD-DFT with DH, B97 family of functionals
   V. Asgeirsson, H. Jonsson                     : NEB implementation
   FAccTs GmbH                                   : IRC, NEB, NEB-TS, DLPNO-Multilevel, CI-OPT
                                                   MM, QMMM, 2- and 3-layer-ONIOM, Crystal-QMMM,
                                                   LR-CPCM, SF, NACMEs, symmetry and pop. for TD-DFT,
                                                   nearIR, NL-DFT gradient (VV10), updates on ESD,
                                                   ML-optimized integration grids
   S Lehtola, MJT Oliveira, MAL Marques          : LibXC Library
   Liviu Ungur et al                             : ANISO software


 Your calculation uses the libint2 library for the computation of 2-el integrals
 For citations please refer to: http://libint.valeyev.net

 Your ORCA version has been built with support for libXC version: 5.1.0
 For citations please refer to: https://tddft.org/programs/libxc/

 This ORCA versions uses:
   CBLAS   interface :  Fast vector & matrix operations
   LAPACKE interface :  Fast linear algebra routines
   Shared memory     :  Shared parallel matrices


================================================================================

----- Orbital basis set information -----
Your calculation utilizes the basis: def2-TZVP
   F. Weigend and R. Ahlrichs, Phys. Chem. Chem. Phys. 7, 3297 (2005).

----- AuxJ basis set information -----
Your calculation utilizes the auxiliary basis: def2/J
   F. Weigend, Phys. Chem. Chem. Phys. 8, 1057 (2006).

================================================================================
                                        WARNINGS
                       Please study these warnings very carefully!
================================================================================


WARNING: Geometry Optimization
  ===> : Switching off AutoStart
         For restart on a previous wavefunction, please use MOREAD

INFO   : the flag for use of the SHARK integral package has been found!

================================================================================
                                       INPUT FILE
================================================================================
NAME = Ibuprofeno\Ibuprofeno_PBE_def2-TZVP\Ibuprofeno_PBE_def2-TZVP.orcainp
|  1> # ORCA input file
|  2> # 
|  3> !PBE def2-TZVP Opt CPCM(WATER)
|  4> 
|  5> * xyz 0 1
|  6>    C        2.67569         1.76515         3.50557
|  7>    C        2.36944         0.52730         2.66006
|  8>    C        0.85304         0.35239         2.53184
|  9>    C        3.01280         0.61958         1.26293
| 10>    C        4.52308         0.73287         1.26152
| 11>    C        5.32588        -0.26385         1.83075
| 12>    C        6.72138        -0.18302         1.76021
| 13>    C        7.34776         0.88750         1.10340
| 14>    C        6.53877         1.90312         0.57006
| 15>    C        5.14455         1.82624         0.64881
| 16>    C        8.85935         0.87626         0.89416
| 17>    C        9.16989         0.86797        -0.60844
| 18>    C        9.67830         1.97118         1.57297
| 19>    O        9.02053         2.78926         2.42048
| 20>    O       10.88237         2.10266         1.39315
| 21>    H        2.20498         1.68559         4.49092
| 22>    H        2.30498         2.67554         3.02336
| 23>    H        3.75199         1.87974         3.66775
| 24>    H        2.76094        -0.35184         3.18620
| 25>    H        0.40084         1.17948         1.97345
| 26>    H        0.38024         0.31473         3.51918
| 27>    H        0.61040        -0.58007         2.01109
| 28>    H        2.58137         1.47469         0.72497
| 29>    H        2.74568        -0.26733         0.67243
| 30>    H        4.87092        -1.12910         2.30841
| 31>    H        7.30958        -0.99192         2.19026
| 32>    H        6.98078         2.75448         0.05361
| 33>    H        4.54773         2.61497         0.19900
| 34>    H        9.24509        -0.06091         1.31903
| 35>    H        8.79507         1.76990        -1.10604
| 36>    H        8.71091         0.00118        -1.09752
| 37>    H       10.24776         0.82625        -0.79396
| 38>    H        8.06926         2.59022         2.53077
| 39> *
| 40> 
| 41>                          ****END OF INPUT****
================================================================================

                       *****************************
                       * Geometry Optimization Run *
                       *****************************

Geometry optimization settings:
Update method            Update   .... BFGS
Choice of coordinates    CoordSys .... Z-matrix Internals
Initial Hessian          InHess   .... Almoef's Model

Convergence Tolerances:
Energy Change            TolE     ....  5.0000e-06 Eh
Max. Gradient            TolMAXG  ....  3.0000e-04 Eh/bohr
RMS Gradient             TolRMSG  ....  1.0000e-04 Eh/bohr
Max. Displacement        TolMAXD  ....  4.0000e-03 bohr
RMS Displacement         TolRMSD  ....  2.0000e-03 bohr
Strict Convergence                ....  False
------------------------------------------------------------------------------
                        ORCA OPTIMIZATION COORDINATE SETUP
------------------------------------------------------------------------------

The optimization will be done in new redundant internal coordinates
Making redundant internal coordinates   ...  (new redundants) done
Evaluating the initial hessian          ...  (Almloef) done
Evaluating the coordinates              ...  done
Calculating the B-matrix                .... done
Calculating the G-matrix                .... done
Diagonalizing the G-matrix              .... done
Small eigenvalue found = 1.026e-02
Small eigenvalue found = 2.000e-02
Small eigenvalue found = 2.503e-02
Small eigenvalue found = 2.962e-02
The first mode is                       ....   79
The number of degrees of freedom        ....   93

    -----------------------------------------------------------------
                    Redundant Internal Coordinates


    -----------------------------------------------------------------
         Definition                    Initial Value    Approx d2E/dq
    -----------------------------------------------------------------
      1. B(C   1,C   0)                  1.5300         0.373553   
      2. B(C   2,C   1)                  1.5318         0.371072   
      3. B(C   3,C   1)                  1.5409         0.358900   
      4. B(C   4,C   3)                  1.5145         0.395429   
      5. B(C   5,C   4)                  1.4007         0.600713   
      6. B(C   6,C   5)                  1.3996         0.603107   
      7. B(C   7,C   6)                  1.4035         0.594603   
      8. B(C   8,C   7)                  1.4037         0.594109   
      9. B(C   9,C   8)                  1.3986         0.605461   
     10. B(C   9,C   4)                  1.3990         0.604560   
     11. B(C  10,C   7)                  1.5260         0.379043   
     12. B(C  11,C  10)                  1.5344         0.367617   
     13. B(C  12,C  10)                  1.5265         0.378359   
     14. B(O  13,C  12)                  1.3491         0.650217   
     15. B(O  14,C  12)                  1.2245         1.027817   
     16. B(H  15,C   0)                  1.0949         0.353672   
     17. B(H  16,C   0)                  1.0949         0.353702   
     18. B(H  17,C   0)                  1.0945         0.354241   
     19. B(H  18,C   1)                  1.0968         0.351209   
     20. B(H  19,C   2)                  1.0956         0.352754   
     21. B(H  20,C   2)                  1.0954         0.353088   
     22. B(H  21,C   2)                  1.0952         0.353243   
     23. B(H  22,C   3)                  1.0985         0.349004   
     24. B(H  23,C   3)                  1.0985         0.349058   
     25. B(H  24,C   5)                  1.0880         0.362718   
     26. B(H  25,C   6)                  1.0887         0.361840   
     27. B(H  26,C   8)                  1.0895         0.360825   
     28. B(H  27,C   9)                  1.0866         0.364676   
     29. B(H  28,C  10)                  1.0989         0.348507   
     30. B(H  29,C  11)                  1.0962         0.352039   
     31. B(H  30,C  11)                  1.0960         0.352267   
     32. B(H  31,C  11)                  1.0945         0.354177   
     33. B(H  32,H  17)                  4.5207         0.000000   
     34. B(H  32,O  13)                  0.9781         0.486493   
     35. A(C   1,C   0,H  15)          110.6392         0.323358   
     36. A(H  15,C   0,H  17)          107.2791         0.289273   
     37. A(C   1,C   0,H  17)          111.3112         0.323444   
     38. A(H  16,C   0,H  17)          108.1298         0.289277   
     39. A(C   1,C   0,H  16)          111.1962         0.323363   
     40. A(H  15,C   0,H  16)          108.1324         0.289204   
     41. A(C   0,C   1,C   3)          111.6558         0.360871   
     42. A(C   2,C   1,H  18)          107.5765         0.322635   
     43. A(C   2,C   1,C   3)          110.1366         0.360461   
     44. A(C   3,C   1,H  18)          109.5064         0.320878   
     45. A(C   0,C   1,H  18)          108.1767         0.322988   
     46. A(C   0,C   1,C   2)          109.6809         0.362931   
     47. A(C   1,C   2,H  19)          111.4102         0.322868   
     48. A(H  20,C   2,H  21)          107.6791         0.289071   
     49. A(C   1,C   2,H  20)          110.8406         0.322918   
     50. A(H  19,C   2,H  21)          107.9960         0.289028   
     51. A(C   1,C   2,H  21)          110.8745         0.322941   
     52. A(H  19,C   2,H  20)          107.8908         0.289008   
     53. A(C   1,C   3,H  23)          109.7259         0.320556   
     54. A(C   4,C   3,H  22)          109.4481         0.325684   
     55. A(H  22,C   3,H  23)          105.6489         0.288007   
     56. A(C   1,C   3,C   4)          114.9403         0.364395   
     57. A(C   1,C   3,H  22)          109.0662         0.320548   
     58. A(C   4,C   3,H  23)          107.6010         0.325692   
     59. A(C   5,C   4,C   9)          118.6543         0.429657   
     60. A(C   3,C   4,C   5)          121.1934         0.398447   
     61. A(C   3,C   4,C   9)          120.1232         0.398895   
     62. A(C   4,C   5,C   6)          120.6557         0.429471   
     63. A(C   6,C   5,H  24)          119.0107         0.351694   
     64. A(C   4,C   5,H  24)          120.3073         0.351458   
     65. A(C   5,C   6,C   7)          120.8390         0.428684   
     66. A(C   7,C   6,H  25)          120.6948         0.350708   
     67. A(C   5,C   6,H  25)          118.4164         0.351550   
     68. A(C   8,C   7,C  10)          121.6075         0.394731   
     69. A(C   6,C   7,C  10)          120.0414         0.394789   
     70. A(C   6,C   7,C   8)          118.1949         0.427531   
     71. A(C   9,C   8,H  26)          118.3014         0.351615   
     72. A(C   7,C   8,C   9)          120.8885         0.428920   
     73. A(C   7,C   8,H  26)          120.7767         0.350492   
     74. A(C   4,C   9,C   8)          120.6960         0.430264   
     75. A(C   4,C   9,H  27)          120.3069         0.352158   
     76. A(C   8,C   9,H  27)          118.9703         0.352247   
     77. A(C   7,C  10,C  11)          109.5594         0.363255   
     78. A(C  12,C  10,H  28)          104.5635         0.323256   
     79. A(C  11,C  10,H  28)          107.6362         0.321734   
     80. A(C   7,C  10,H  28)          107.5156         0.323352   
     81. A(C  11,C  10,C  12)          109.3151         0.363143   
     82. A(C   7,C  10,C  12)          117.7194         0.365049   
     83. A(H  30,C  11,H  31)          107.8562         0.289085   
     84. A(H  29,C  11,H  31)          106.9273         0.289055   
     85. A(C  10,C  11,H  31)          111.4387         0.322586   
     86. A(H  29,C  11,H  30)          107.7563         0.288811   
     87. A(C  10,C  11,H  30)          110.8867         0.322300   
     88. A(C  10,C  11,H  29)          111.7709         0.322266   
     89. A(O  13,C  12,O  14)          120.4344         0.473671   
     90. A(C  10,C  12,O  14)          122.6318         0.432126   
     91. A(C  10,C  12,O  13)          116.9172         0.398346   
     92. A(C  12,O  13,H  32)          114.9362         0.368914   
     93. D(H  18,C   1,C   0,H  16)    179.9583         0.011142   
     94. D(H  18,C   1,C   0,H  17)     59.3258         0.011142   
     95. D(C   2,C   1,C   0,H  16)    -62.9771         0.011142   
     96. D(C   3,C   1,C   0,H  15)    179.5763         0.011142   
     97. D(C   2,C   1,C   0,H  17)    176.3904         0.011142   
     98. D(C   2,C   1,C   0,H  15)     57.2054         0.011142   
     99. D(C   3,C   1,C   0,H  16)     59.3939         0.011142   
    100. D(C   3,C   1,C   0,H  17)    -61.2386         0.011142   
    101. D(H  18,C   1,C   0,H  15)    -59.8593         0.011142   
    102. D(H  19,C   2,C   1,C   3)    -58.1958         0.011003   
    103. D(H  19,C   2,C   1,H  18)   -177.4850         0.011003   
    104. D(H  21,C   2,C   1,C   0)   -174.6146         0.011003   
    105. D(H  20,C   2,C   1,C   3)   -178.3507         0.011003   
    106. D(H  20,C   2,C   1,H  18)     62.3601         0.011003   
    107. D(H  21,C   2,C   1,H  18)    -57.1741         0.011003   
    108. D(H  21,C   2,C   1,C   3)     62.1151         0.011003   
    109. D(H  19,C   2,C   1,C   0)     65.0745         0.011003   
    110. D(H  20,C   2,C   1,C   0)    -55.0803         0.011003   
    111. D(H  23,C   3,C   1,C   2)    -56.0076         0.010339   
    112. D(H  23,C   3,C   1,C   0)   -178.1169         0.010339   
    113. D(H  22,C   3,C   1,H  18)    177.3839         0.010339   
    114. D(H  22,C   3,C   1,C   2)     59.2771         0.010339   
    115. D(H  22,C   3,C   1,C   0)    -62.8322         0.010339   
    116. D(C   4,C   3,C   1,H  18)    -59.3015         0.010339   
    117. D(C   4,C   3,C   1,C   2)   -177.4083         0.010339   
    118. D(H  23,C   3,C   1,H  18)     62.0992         0.010339   
    119. D(C   4,C   3,C   1,C   0)     60.4824         0.010339   
    120. D(C   9,C   4,C   3,C   1)   -122.1861         0.011617   
    121. D(C   5,C   4,C   3,H  23)    -62.7518         0.011617   
    122. D(C   5,C   4,C   3,H  22)   -177.0905         0.011617   
    123. D(C   5,C   4,C   3,C   1)     59.7987         0.011617   
    124. D(C   9,C   4,C   3,H  23)    115.2633         0.011617   
    125. D(C   9,C   4,C   3,H  22)      0.9247         0.011617   
    126. D(H  24,C   5,C   4,C   9)   -179.6016         0.024880   
    127. D(H  24,C   5,C   4,C   3)     -1.5580         0.024880   
    128. D(C   6,C   5,C   4,C   9)     -1.4823         0.024880   
    129. D(C   6,C   5,C   4,C   3)    176.5613         0.024880   
    130. D(H  25,C   6,C   5,H  24)     -0.1532         0.025089   
    131. D(H  25,C   6,C   5,C   4)   -178.2966         0.025089   
    132. D(C   7,C   6,C   5,C   4)     -0.8450         0.025089   
    133. D(C   7,C   6,C   5,H  24)    177.2984         0.025089   
    134. D(C  10,C   7,C   6,H  25)      4.5584         0.024350   
    135. D(C  10,C   7,C   6,C   5)   -172.8350         0.024350   
    136. D(C   8,C   7,C   6,H  25)   -179.9113         0.024350   
    137. D(C   8,C   7,C   6,C   5)      2.6953         0.024350   
    138. D(H  26,C   8,C   7,C  10)     -4.6654         0.024307   
    139. D(H  26,C   8,C   7,C   6)    179.8780         0.024307   
    140. D(C   9,C   8,C   7,C  10)    173.1948         0.024307   
    141. D(C   9,C   8,C   7,C   6)     -2.2618         0.024307   
    142. D(H  27,C   9,C   8,H  26)     -0.2479         0.025297   
    143. D(H  27,C   9,C   8,C   7)   -178.1599         0.025297   
    144. D(C   4,C   9,C   8,H  26)    177.8781         0.025297   
    145. D(C   4,C   9,C   8,C   7)     -0.0339         0.025297   
    146. D(H  27,C   9,C   4,C   5)   -179.9821         0.025217   
    147. D(H  27,C   9,C   4,C   3)      1.9527         0.025217   
    148. D(C   8,C   9,C   4,C   5)      1.9169         0.025217   
    149. D(C   8,C   9,C   4,C   3)   -176.1482         0.025217   
    150. D(H  28,C  10,C   7,C   6)      0.8215         0.010724   
    151. D(C  12,C  10,C   7,C   8)     67.8217         0.010724   
    152. D(C  12,C  10,C   7,C   6)   -116.8041         0.010724   
    153. D(C  11,C  10,C   7,C   8)    -57.8548         0.010724   
    154. D(H  28,C  10,C   7,C   8)   -174.5527         0.010724   
    155. D(C  11,C  10,C   7,C   6)    117.5194         0.010724   
    156. D(H  31,C  11,C  10,H  28)    -61.4907         0.010812   
    157. D(H  31,C  11,C  10,C   7)   -178.1125         0.010812   
    158. D(H  30,C  11,C  10,H  28)     58.6706         0.010812   
    159. D(H  30,C  11,C  10,C  12)    171.6884         0.010812   
    160. D(H  30,C  11,C  10,C   7)    -57.9512         0.010812   
    161. D(H  29,C  11,C  10,H  28)    178.9284         0.010812   
    162. D(H  31,C  11,C  10,C  12)     51.5272         0.010812   
    163. D(H  29,C  11,C  10,C  12)    -68.0538         0.010812   
    164. D(H  29,C  11,C  10,C   7)     62.3065         0.010812   
    165. D(O  14,C  12,C  10,H  28)     65.9322         0.010688   
    166. D(O  14,C  12,C  10,C  11)    -49.0766         0.010688   
    167. D(O  14,C  12,C  10,C   7)   -174.8729         0.010688   
    168. D(O  13,C  12,C  10,H  28)   -112.5931         0.010688   
    169. D(O  13,C  12,C  10,C  11)    132.3981         0.010688   
    170. D(O  13,C  12,C  10,C   7)      6.6018         0.010688   
    171. D(H  32,O  13,C  12,O  14)   -177.6497         0.031247   
    172. D(H  32,O  13,C  12,C  10)      0.9099         0.031247   
    -----------------------------------------------------------------

Number of atoms                         .... 33
Number of degrees of freedom            .... 172

         *************************************************************
         *                GEOMETRY OPTIMIZATION CYCLE   1            *
         *************************************************************
---------------------------------
CARTESIAN COORDINATES (ANGSTROEM)
---------------------------------
  C      2.675690    1.765150    3.505570
  C      2.369440    0.527300    2.660060
  C      0.853040    0.352390    2.531840
  C      3.012800    0.619580    1.262930
  C      4.523080    0.732870    1.261520
  C      5.325880   -0.263850    1.830750
  C      6.721380   -0.183020    1.760210
  C      7.347760    0.887500    1.103400
  C      6.538770    1.903120    0.570060
  C      5.144550    1.826240    0.648810
  C      8.859350    0.876260    0.894160
  C      9.169890    0.867970   -0.608440
  C      9.678300    1.971180    1.572970
  O      9.020530    2.789260    2.420480
  O     10.882370    2.102660    1.393150
  H      2.204980    1.685590    4.490920
  H      2.304980    2.675540    3.023360
  H      3.751990    1.879740    3.667750
  H      2.760940   -0.351840    3.186200
  H      0.400840    1.179480    1.973450
  H      0.380240    0.314730    3.519180
  H      0.610400   -0.580070    2.011090
  H      2.581370    1.474690    0.724970
  H      2.745680   -0.267330    0.672430
  H      4.870920   -1.129100    2.308410
  H      7.309580   -0.991920    2.190260
  H      6.980780    2.754480    0.053610
  H      4.547730    2.614970    0.199000
  H      9.245090   -0.060910    1.319030
  H      8.795070    1.769900   -1.106040
  H      8.710910    0.001180   -1.097520
  H     10.247760    0.826250   -0.793960
  H      8.069260    2.590220    2.530770

----------------------------
CARTESIAN COORDINATES (A.U.)
----------------------------
  NO LB      ZA    FRAG     MASS         X           Y           Z
   0 C     6.0000    0    12.011    5.056321    3.335650    6.624567
   1 C     6.0000    0    12.011    4.477593    0.996453    5.026785
   2 C     6.0000    0    12.011    1.612012    0.665921    4.784484
   3 C     6.0000    0    12.011    5.693367    1.170837    2.386592
   4 C     6.0000    0    12.011    8.547382    1.384924    2.383927
   5 C     6.0000    0    12.011   10.064455   -0.498604    3.459616
   6 C     6.0000    0    12.011   12.701567   -0.345858    3.326315
   7 C     6.0000    0    12.011   13.885254    1.677132    2.085124
   8 C     6.0000    0    12.011   12.356485    3.596376    1.077257
   9 C     6.0000    0    12.011    9.721791    3.451093    1.226073
  10 C     6.0000    0    12.011   16.741745    1.655891    1.689718
  11 C     6.0000    0    12.011   17.328581    1.640226   -1.149785
  12 C     6.0000    0    12.011   18.289336    3.724990    2.972483
  13 O     8.0000    0    15.999   17.046331    5.270938    4.574044
  14 O     8.0000    0    15.999   20.564699    3.973452    2.632672
  15 H     1.0000    0     1.008    4.166808    3.185303    8.486609
  16 H     1.0000    0     1.008    4.355781    5.056038    5.713322
  17 H     1.0000    0     1.008    7.090234    3.552194    6.931043
  18 H     1.0000    0     1.008    5.217420   -0.664881    6.021045
  19 H     1.0000    0     1.008    0.757478    2.228894    3.729280
  20 H     1.0000    0     1.008    0.718549    0.594754    6.650286
  21 H     1.0000    0     1.008    1.153489   -1.096173    3.800409
  22 H     1.0000    0     1.008    4.878082    2.786760    1.369995
  23 H     1.0000    0     1.008    5.188583   -0.505180    1.270709
  24 H     1.0000    0     1.008    9.204705   -2.133690    4.362263
  25 H     1.0000    0     1.008   13.813104   -1.874457    4.138992
  26 H     1.0000    0     1.008   13.191762    5.205213    0.101308
  27 H     1.0000    0     1.008    8.593964    4.941577    0.376056
  28 H     1.0000    0     1.008   17.470688   -0.115103    2.492605
  29 H     1.0000    0     1.008   16.620274    3.344626   -2.090113
  30 H     1.0000    0     1.008   16.461234    0.002230   -2.074012
  31 H     1.0000    0     1.008   19.365460    1.561386   -1.500367
  32 H     1.0000    0     1.008   15.248692    4.894806    4.782462

--------------------------------
INTERNAL COORDINATES (ANGSTROEM)
--------------------------------
 C      0   0   0     0.000000000000     0.00000000     0.00000000
 C      1   0   0     1.530015962368     0.00000000     0.00000000
 C      2   1   0     1.531829898030   109.68085940     0.00000000
 C      2   1   3     1.540908798372   111.65577864   122.37099460
 C      4   2   1     1.514523783438   114.94030142    60.48235825
 C      5   4   2     1.400700321732   121.19344506    59.79873337
 C      6   5   4     1.399617672974   120.65574792   176.56130566
 C      7   6   5     1.403482935735   120.83901683   359.15499176
 C      8   7   6     1.403709499897   118.19490163     2.69527821
 C      9   8   7     1.398556936739   120.88847266   357.73815028
 C      8   7   6     1.526044574480   120.04137847   187.16499061
 C     11   8   7     1.534376282305   109.55942235   117.51938940
 C     11   8   7     1.526535923259   117.71936967   243.19588913
 O     13  11   8     1.349143972821   116.91724670     6.60175040
 O     13  11   8     1.224502669536   122.63179623   185.12706172
 H      1   2   3     1.094902881629   110.63921864    57.20535059
 H      1   2   3     1.094880057495   111.19615783   297.02290207
 H      1   2   3     1.094465582145   111.31118805   176.39042216
 H      2   1   3     1.096805675222   108.17668635   242.93534909
 H      3   2   1     1.095610377917   111.41019161    65.07450784
 H      3   2   1     1.095353089739   110.84063340   304.91966346
 H      3   2   1     1.095233483646   110.87452355   185.38542895
 H      4   2   1     1.098519876288   109.06622004   297.16776483
 H      4   2   1     1.098477442873   109.72593932   181.88307048
 H      6   5   4     1.088028142881   120.30730276   358.44202786
 H      7   6   5     1.088687950011   118.41637635   181.70340462
 H      9   8   7     1.089452748952   120.77669238   179.87797866
 H     10   9   8     1.086562543713   118.97034900   181.84012235
 H     11   8   7     1.098907399829   107.51564157     0.82148629
 H     12  11   8     1.096163088824   111.77089727    62.30652671
 H     12  11   8     1.095986674600   110.88669119   302.04875038
 H     12  11   8     1.094514488575   111.43873545   181.88746548
 H     14  13  11     0.978108081247   114.93617530     0.90990338

---------------------------
INTERNAL COORDINATES (A.U.)
---------------------------
 C      0   0   0     0.000000000000     0.00000000     0.00000000
 C      1   0   0     2.891311149403     0.00000000     0.00000000
 C      2   1   0     2.894738991030   109.68085940     0.00000000
 C      2   1   3     2.911895626273   111.65577864   122.37099460
 C      4   2   1     2.862035174008   114.94030142    60.48235825
 C      5   4   2     2.646940003769   121.19344506    59.79873337
 C      6   5   4     2.644894094116   120.65574792   176.56130566
 C      7   6   5     2.652198382171   120.83901683   359.15499176
 C      8   7   6     2.652626526388   118.19490163     2.69527821
 C      9   8   7     2.642889593132   120.88847266   357.73815028
 C      8   7   6     2.883806313924   120.04137847   187.16499061
 C     11   8   7     2.899550959941   109.55942235   117.51938940
 C     11   8   7     2.884734828552   117.71936967   243.19588913
 O     13  11   8     2.549512623863   116.91724670     6.60175040
 O     13  11   8     2.313974695678   122.63179623   185.12706172
 H      1   2   3     2.069066589520   110.63921864    57.20535059
 H      1   2   3     2.069023458157   111.19615783   297.02290207
 H      1   2   3     2.068240213257   111.31118805   176.39042216
 H      2   1   3     2.072662348301   108.17668635   242.93534909
 H      3   2   1     2.070403563746   111.41019161    65.07450784
 H      3   2   1     2.069917359551   110.84063340   304.91966346
 H      3   2   1     2.069691336792   110.87452355   185.38542895
 H      4   2   1     2.075901718854   109.06622004   297.16776483
 H      4   2   1     2.075821531319   109.72593932   181.88307048
 H      6   5   4     2.056075216043   120.30730276   358.44202786
 H      7   6   5     2.057322070822   118.41637635   181.70340462
 H      9   8   7     2.058767331368   120.77669238   179.87797866
 H     10   9   8     2.053305634994   118.97034900   181.84012235
 H     11   8   7     2.076634032217   107.51564157     0.82148629
 H     12  11   8     2.071448035990   111.77089727    62.30652671
 H     12  11   8     2.071114661420   110.88669119   302.04875038
 H     12  11   8     2.068332633015   111.43873545   181.88746548
 H     14  13  11     1.848356402931   114.93617530     0.90990338

---------------------
BASIS SET INFORMATION
---------------------
There are 3 groups of distinct atoms

 Group   1 Type C   : 11s6p2d1f contracted to 5s3p2d1f pattern {62111/411/11/1}
 Group   2 Type O   : 11s6p2d1f contracted to 5s3p2d1f pattern {62111/411/11/1}
 Group   3 Type H   : 5s1p contracted to 3s1p pattern {311/1}

Atom   0C    basis set group =>   1
Atom   1C    basis set group =>   1
Atom   2C    basis set group =>   1
Atom   3C    basis set group =>   1
Atom   4C    basis set group =>   1
Atom   5C    basis set group =>   1
Atom   6C    basis set group =>   1
Atom   7C    basis set group =>   1
Atom   8C    basis set group =>   1
Atom   9C    basis set group =>   1
Atom  10C    basis set group =>   1
Atom  11C    basis set group =>   1
Atom  12C    basis set group =>   1
Atom  13O    basis set group =>   2
Atom  14O    basis set group =>   2
Atom  15H    basis set group =>   3
Atom  16H    basis set group =>   3
Atom  17H    basis set group =>   3
Atom  18H    basis set group =>   3
Atom  19H    basis set group =>   3
Atom  20H    basis set group =>   3
Atom  21H    basis set group =>   3
Atom  22H    basis set group =>   3
Atom  23H    basis set group =>   3
Atom  24H    basis set group =>   3
Atom  25H    basis set group =>   3
Atom  26H    basis set group =>   3
Atom  27H    basis set group =>   3
Atom  28H    basis set group =>   3
Atom  29H    basis set group =>   3
Atom  30H    basis set group =>   3
Atom  31H    basis set group =>   3
Atom  32H    basis set group =>   3
---------------------------------
AUXILIARY/J BASIS SET INFORMATION
---------------------------------
There are 3 groups of distinct atoms

 Group   1 Type C   : 12s5p4d2f1g contracted to 6s4p3d1f1g pattern {711111/2111/211/2/1}
 Group   2 Type O   : 12s5p4d2f1g contracted to 6s4p3d1f1g pattern {711111/2111/211/2/1}
 Group   3 Type H   : 5s2p1d contracted to 3s1p1d pattern {311/2/1}

Atom   0C    basis set group =>   1
Atom   1C    basis set group =>   1
Atom   2C    basis set group =>   1
Atom   3C    basis set group =>   1
Atom   4C    basis set group =>   1
Atom   5C    basis set group =>   1
Atom   6C    basis set group =>   1
Atom   7C    basis set group =>   1
Atom   8C    basis set group =>   1
Atom   9C    basis set group =>   1
Atom  10C    basis set group =>   1
Atom  11C    basis set group =>   1
Atom  12C    basis set group =>   1
Atom  13O    basis set group =>   2
Atom  14O    basis set group =>   2
Atom  15H    basis set group =>   3
Atom  16H    basis set group =>   3
Atom  17H    basis set group =>   3
Atom  18H    basis set group =>   3
Atom  19H    basis set group =>   3
Atom  20H    basis set group =>   3
Atom  21H    basis set group =>   3
Atom  22H    basis set group =>   3
Atom  23H    basis set group =>   3
Atom  24H    basis set group =>   3
Atom  25H    basis set group =>   3
Atom  26H    basis set group =>   3
Atom  27H    basis set group =>   3
Atom  28H    basis set group =>   3
Atom  29H    basis set group =>   3
Atom  30H    basis set group =>   3
Atom  31H    basis set group =>   3
Atom  32H    basis set group =>   3
------------------------------------------------------------------------------
                           ORCA GTO INTEGRAL CALCULATION
                           -- RI-GTO INTEGRALS CHOSEN --
------------------------------------------------------------------------------
------------------------------------------------------------------------------
                   ___                                                        
                  /   \      - P O W E R E D   B Y -                         
                 /     \                                                     
                 |  |  |   _    _      __       _____    __    __             
                 |  |  |  | |  | |    /  \     |  _  \  |  |  /  |          
                  \  \/   | |  | |   /    \    | | | |  |  | /  /          
                 / \  \   | |__| |  /  /\  \   | |_| |  |  |/  /          
                |  |  |   |  __  | /  /__\  \  |    /   |      \           
                |  |  |   | |  | | |   __   |  |    \   |  |\   \          
                \     /   | |  | | |  |  |  |  | |\  \  |  | \   \       
                 \___/    |_|  |_| |__|  |__|  |_| \__\ |__|  \__/        
                                                                              
                      - O R C A' S   B I G   F R I E N D -                    
                                      &                                       
                       - I N T E G R A L  F E E D E R -                       
                                                                              
 v1 FN, 2020, v2 2021                                                         
------------------------------------------------------------------------------


Reading SHARK input file Ibuprofeno\Ibuprofeno_PBE_def2-TZVP\Ibuprofeno_PBE_def2-TZVP.orcainp.SHARKINP.tmp ... ok
----------------------
SHARK INTEGRAL PACKAGE
----------------------

Number of atoms                             ...     33
Number of basis functions                   ...    573
Number of shells                            ...    237
Maximum angular momentum                    ...      3
Integral batch strategy                     ... SHARK/LIBINT Hybrid
RI-J (if used) integral strategy            ... SPLIT-RIJ (Revised 2003 algorithm where possible)
Printlevel                                  ...      1
Contraction scheme used                     ... SEGMENTED contraction
Coulomb Range Separation                    ... NOT USED
Exchange Range Separation                   ... NOT USED
Finite Nucleus Model                        ... NOT USED
Auxiliary Coulomb fitting basis             ... AVAILABLE
   # of basis functions in Aux-J            ...    933
   # of shells in Aux-J                     ...    315
   Maximum angular momentum in Aux-J        ...      4
Auxiliary J/K fitting basis                 ... NOT available
Auxiliary Correlation fitting basis         ... NOT available
Auxiliary 'external' fitting basis          ... NOT available
Integral threshold                          ...     2.500000e-11
Primitive cut-off                           ...     2.500000e-12
Primitive pair pre-selection threshold      ...     2.500000e-12

Calculating pre-screening integrals         ... done (  0.1 sec) Dimension = 237
Organizing shell pair data                  ... done (  0.1 sec)
Shell pair information
Total number of shell pairs                 ...     28203
Shell pairs after pre-screening             ...     21292
Total number of primitive shell pairs       ...     83820
Primitive shell pairs kept                  ...     44296
          la=0 lb=0:   6167 shell pairs
          la=1 lb=0:   6276 shell pairs
          la=1 lb=1:   1627 shell pairs
          la=2 lb=0:   2892 shell pairs
          la=2 lb=1:   1472 shell pairs
          la=2 lb=2:    355 shell pairs
          la=3 lb=0:   1380 shell pairs
          la=3 lb=1:    710 shell pairs
          la=3 lb=2:    325 shell pairs
          la=3 lb=3:     88 shell pairs

Calculating one electron integrals          ... done (  0.1 sec)
Calculating RI/J V-Matrix + Cholesky decomp.... done (  0.0 sec)
Calculating Nuclear repulsion               ... done (  0.0 sec) ENN=    964.635694189365 Eh

SHARK setup successfully completed in   0.4 seconds

Maximum memory used throughout the entire GTOINT-calculation: 246.6 MB
-------------------------------------------------------------------------------
                                 ORCA SCF
-------------------------------------------------------------------------------

------------
SCF SETTINGS
------------
Hamiltonian:
 Density Functional     Method          .... DFT(GTOs)
 Exchange Functional    Exchange        .... PBE
   PBE kappa parameter   XKappa         ....  0.804000
   PBE mue parameter    XMuePBE         ....  0.219520
 Correlation Functional Correlation     .... PBE
   PBE beta parameter  CBetaPBE         ....  0.066725
 LDA part of GGA corr.  LDAOpt          .... PW91-LDA
 Gradients option       PostSCFGGA      .... off
   Density functional embedding theory  .... OFF
   NL short-range parameter             ....  6.400000
 RI-approximation to the Coulomb term is turned on
   Number of AuxJ basis functions       .... 933


General Settings:
 Integral files         IntName         .... Ibuprofeno\Ibuprofeno_PBE_def2-TZVP\Ibuprofeno_PBE_def2-TZVP.orcainp
 Hartree-Fock type      HFTyp           .... RHF
 Total Charge           Charge          ....    0
 Multiplicity           Mult            ....    1
 Number of Electrons    NEL             ....  112
 Basis Dimension        Dim             ....  573
 Nuclear Repulsion      ENuc            ....    964.6356941894 Eh

Convergence Acceleration:
 DIIS                   CNVDIIS         .... on
   Start iteration      DIISMaxIt       ....    12
   Startup error        DIISStart       ....  0.200000
   # of expansion vecs  DIISMaxEq       ....     5
   Bias factor          DIISBfac        ....   1.050
   Max. coefficient     DIISMaxC        ....  10.000
 Trust-Rad. Augm. Hess. CNVTRAH         .... auto
   Auto Start mean grad. ratio tolernc. ....  1.125000
   Auto Start start iteration           ....    20
   Auto Start num. interpolation iter.  ....    10
   Max. Number of Micro iterations      ....    16
   Max. Number of Macro iterations      .... Maxiter - #DIIS iter
   Number of Davidson start vectors     ....     2
   Converg. threshold I  (grad. norm)   ....   1.000e-05
   Converg. threshold II (energy diff.) ....   1.000e-08
   Grad. Scal. Fac. for Micro threshold ....   0.100
   Minimum threshold for Micro iter.    ....   0.010
   NR start threshold (gradient norm)   ....   0.001
   Initial trust radius                 ....   0.400
   Minimum AH scaling param. (alpha)    ....   1.000
   Maximum AH scaling param. (alpha)    .... 1000.000
   Orbital update algorithm             .... Taylor
   White noise on init. David. guess    .... on
   Maximum white noise                  ....   0.010
   Quad. conv. algorithm                .... NR
 SOSCF                  CNVSOSCF        .... on
   Start iteration      SOSCFMaxIt      ....   150
   Startup grad/error   SOSCFStart      ....  0.003300
 Level Shifting         CNVShift        .... on
   Level shift para.    LevelShift      ....    0.2500
   Turn off err/grad.   ShiftErr        ....    0.0010
 Zerner damping         CNVZerner       .... off
 Static damping         CNVDamp         .... on
   Fraction old density DampFac         ....    0.7000
   Max. Damping (<1)    DampMax         ....    0.9800
   Min. Damping (>=0)   DampMin         ....    0.0000
   Turn off err/grad.   DampErr         ....    0.1000
 Fernandez-Rico         CNVRico         .... off

SCF Procedure:
 Maximum # iterations   MaxIter         ....   125
 SCF integral mode      SCFMode         .... Direct
   Integral package                     .... SHARK and LIBINT hybrid scheme
 Reset frequency        DirectResetFreq ....    20
 Integral Threshold     Thresh          ....  2.500e-11 Eh
 Primitive CutOff       TCut            ....  2.500e-12 Eh

Convergence Tolerance:
 Convergence Check Mode ConvCheckMode   .... Total+1el-Energy
 Convergence forced     ConvForced      .... 0
 Energy Change          TolE            ....  1.000e-08 Eh
 1-El. energy change                    ....  1.000e-05 Eh
 Orbital Gradient       TolG            ....  1.000e-05
 Orbital Rotation angle TolX            ....  1.000e-05
 DIIS Error             TolErr          ....  5.000e-07


Diagonalization of the overlap matrix:
Smallest eigenvalue                        ... 6.803e-06
Time for diagonalization                   ...    0.019 sec
Threshold for overlap eigenvalues          ... 1.000e-08
Number of eigenvalues below threshold      ... 0
Time for construction of square roots      ...    0.014 sec
Total time needed                          ...    0.034 sec

Time for model grid setup =    0.315 sec

------------------------------
INITIAL GUESS: MODEL POTENTIAL
------------------------------
Loading Hartree-Fock densities                     ... done
Calculating cut-offs                               ... done
Initializing the effective Hamiltonian             ... done
Setting up the integral package (SHARK)            ... done
Starting the Coulomb interaction                   ... done (   0.6 sec)
Reading the grid                                   ... done
Mapping shells                                     ... done
Starting the XC term evaluation                    ... done (   0.6 sec)
  promolecular density results
     # of electrons  =    111.991513974
     EX              =    -88.092750280
     EC              =     -3.713065244
     EX+EC           =    -91.805815524
Transforming the Hamiltonian                       ... done (   0.0 sec)
Diagonalizing the Hamiltonian                      ... done (   0.0 sec)
Back transforming the eigenvectors                 ... done (   0.0 sec)
Now organizing SCF variables                       ... done
                      ------------------
                      INITIAL GUESS DONE (   1.6 sec)
                      ------------------
-------------------
DFT GRID GENERATION
-------------------

General Integration Accuracy     IntAcc      ... 4.388
Radial Grid Type                 RadialGrid  ... OptM3 with GC (2021)
Angular Grid (max. ang.)         AngularGrid ... 4 (Lebedev-302)
Angular grid pruning method      GridPruning ... 4 (adaptive)
Weight generation scheme         WeightScheme... Becke
Basis function cutoff            BFCut       ... 1.0000e-11
Integration weight cutoff        WCut        ... 1.0000e-14
Angular grids for H and He will be reduced by one unit
Partially contracted basis set               ... off
Rotationally invariant grid construction     ... off

Total number of grid points                  ...   146984
Total number of batches                      ...     2315
Average number of points per batch           ...       63
Average number of grid points per atom       ...     4454
Time for grid setup =    1.171 sec


--------------------
CPCM SOLVATION MODEL
--------------------
CPCM parameters:
  Epsilon                                         ...      80.4000
  Refrac                                          ...       1.3300
  Rsolv                                           ...       1.3000
  Surface type                                    ... GAUSSIAN VDW
  Epsilon function type                           ...         CPCM
Radii:
 Radius for C  used is    3.8550 Bohr (=   2.0400 Ang.)
 Radius for O  used is    3.4469 Bohr (=   1.8240 Ang.)
 Radius for H  used is    2.4944 Bohr (=   1.3200 Ang.)
Calculating surface                               ...        done! (  0.0s)
GEPOL surface points                              ...         1787
GEPOL Volume                                      ...    1843.8034
GEPOL Surface-area                                ...     987.4100
Calculating surface distance matrix               ...        done! (  0.0s)
Performing Cholesky decomposition & store         ...        done! (  0.0s)
Overall time for CPCM initialization              ...                 0.1s
--------------
SCF ITERATIONS
--------------
ITER       Energy         Delta-E        Max-DP      RMS-DP      [F,P]     Damp
               ***  Starting incremental Fock matrix formation  ***
  0   -655.6912041130   0.000000000000 0.34026129  0.00123965  0.2729451 0.7000
  1   -655.9048223943  -0.213618281339 0.28084569  0.00096911  0.0846970 0.7000
                               ***Turning on DIIS***
  2   -655.9747987255  -0.069976331153 0.25204732  0.00131261  0.0271766 0.0000
  3   -656.0868428612  -0.112044135707 0.24095954  0.00075823  0.0554023 0.0000
  4   -656.1166758142  -0.029832952983 0.04059534  0.00021609  0.0325030 0.0000
  5   -656.1194800822  -0.002804267999 0.02963885  0.00011668  0.0115971 0.0000
                      *** Initiating the SOSCF procedure ***
                           *** Shutting down DIIS ***
                      *** Re-Reading the Fockian *** 
                      *** Removing any level shift *** 
ITER      Energy       Delta-E        Grad      Rot      Max-DP    RMS-DP
  6   -656.11974228  -0.0002621929  0.000308  0.000308  0.005684  0.000050
               *** Restarting incremental Fock matrix formation ***
  7   -656.11975473  -0.0000124504  0.000292  0.001197  0.004533  0.000034
  8   -656.11974490   0.0000098279  0.000824  0.000992  0.001584  0.000013
  9   -656.11975792  -0.0000130262  0.000110  0.000308  0.000911  0.000006
 10   -656.11975682   0.0000011023  0.000187  0.000197  0.000941  0.000004
 11   -656.11975820  -0.0000013750  0.000016  0.000088  0.000547  0.000003
 12   -656.11975813   0.0000000617  0.000037  0.000070  0.000271  0.000001
 13   -656.11975821  -0.0000000774  0.000007  0.000031  0.000202  0.000002
 14   -656.11975820   0.0000000104  0.000013  0.000021  0.000068  0.000000
                  ***Gradient check signals convergence***
              ***Rediagonalizing the Fockian in SOSCF/NRSCF***

               *****************************************************
               *                     SUCCESS                       *
               *           SCF CONVERGED AFTER  15 CYCLES          *
               *****************************************************


----------------
TOTAL SCF ENERGY
----------------

Total Energy       :         -656.11975822 Eh          -17853.92630 eV

Components:
Nuclear Repulsion  :          964.63569419 Eh           26249.07172 eV
Electronic Energy  :        -1620.75545241 Eh          -44102.99801 eV
One Electron Energy:        -2803.84080616 Eh          -76296.38717 eV
Two Electron Energy:         1183.08535375 Eh           32193.38916 eV
CPCM Dielectric    :           -0.01855226 Eh              -0.50483 eV

Virial components:
Potential Energy   :        -1309.16885124 Eh          -35624.29555 eV
Kinetic Energy     :          653.04909302 Eh           17770.36925 eV
Virial Ratio       :            2.00470204


DFT components:
N(Alpha)           :       56.000029823740 electrons
N(Beta)            :       56.000029823740 electrons
N(Total)           :      112.000059647480 electrons
E(X)               :      -89.966894900643 Eh       
E(C)               :       -3.709019112343 Eh       
E(XC)              :      -93.675914012985 Eh       
DFET-embed. en.    :        0.000000000000 Eh       
CPCM Solvation Model Properties:
Surface-charge          :           -0.03619617
Charge-correction       :            0.00002579 Eh               0.00070 eV
Free-energy (cav+disp)  :  This term is not implemented in the current solvation scheme

---------------
SCF CONVERGENCE
---------------

  Last Energy change         ...   -1.9300e-08  Tolerance :   1.0000e-08
  Last MAX-Density change    ...    2.0885e-04  Tolerance :   1.0000e-07
  Last RMS-Density change    ...    1.9316e-06  Tolerance :   5.0000e-09
  Last Orbital Gradient      ...    5.7682e-07  Tolerance :   1.0000e-05
  Last Orbital Rotation      ...    1.8736e-06  Tolerance :   1.0000e-05

             **** THE GBW FILE WAS UPDATED (Ibuprofeno\Ibuprofeno_PBE_def2-TZVP\Ibuprofeno_PBE_def2-TZVP.orcainp.gbw) ****
             **** DENSITY Ibuprofeno\Ibuprofeno_PBE_def2-TZVP\Ibuprofeno_PBE_def2-TZVP.orcainp.scfp WAS UPDATED ****
             **** ENERGY FILE WAS UPDATED (Ibuprofeno\Ibuprofeno_PBE_def2-TZVP\Ibuprofeno_PBE_def2-TZVP.orcainp.en.tmp) ****
             **** THE GBW FILE WAS UPDATED (Ibuprofeno\Ibuprofeno_PBE_def2-TZVP\Ibuprofeno_PBE_def2-TZVP.orcainp.gbw) ****
             **** DENSITY Ibuprofeno\Ibuprofeno_PBE_def2-TZVP\Ibuprofeno_PBE_def2-TZVP.orcainp.scfp WAS UPDATED ****
----------------
ORBITAL ENERGIES
----------------

  NO   OCC          E(Eh)            E(eV) 
   0   2.0000     -18.801006      -511.6014 
   1   2.0000     -18.743877      -510.0468 
   2   2.0000     -10.015957      -272.5480 
   3   2.0000      -9.911419      -269.7034 
   4   2.0000      -9.902081      -269.4493 
   5   2.0000      -9.895273      -269.2641 
   6   2.0000      -9.890061      -269.1223 
   7   2.0000      -9.889660      -269.1113 
   8   2.0000      -9.885829      -269.0071 
   9   2.0000      -9.885607      -269.0010 
  10   2.0000      -9.883859      -268.9535 
  11   2.0000      -9.877612      -268.7835 
  12   2.0000      -9.876711      -268.7590 
  13   2.0000      -9.862297      -268.3667 
  14   2.0000      -9.861213      -268.3372 
  15   2.0000      -1.013957       -27.5912 
  16   2.0000      -0.935135       -25.4463 
  17   2.0000      -0.789451       -21.4821 
  18   2.0000      -0.744427       -20.2569 
  19   2.0000      -0.720927       -19.6174 
  20   2.0000      -0.677158       -18.4264 
  21   2.0000      -0.671978       -18.2855 
  22   2.0000      -0.612565       -16.6687 
  23   2.0000      -0.609316       -16.5803 
  24   2.0000      -0.593541       -16.1511 
  25   2.0000      -0.562519       -15.3069 
  26   2.0000      -0.551215       -14.9993 
  27   2.0000      -0.528141       -14.3714 
  28   2.0000      -0.497764       -13.5449 
  29   2.0000      -0.475230       -12.9317 
  30   2.0000      -0.446738       -12.1564 
  31   2.0000      -0.426449       -11.6043 
  32   2.0000      -0.412221       -11.2171 
  33   2.0000      -0.407103       -11.0778 
  34   2.0000      -0.401352       -10.9213 
  35   2.0000      -0.398851       -10.8533 
  36   2.0000      -0.386000       -10.5036 
  37   2.0000      -0.381626       -10.3846 
  38   2.0000      -0.371540       -10.1101 
  39   2.0000      -0.361751        -9.8437 
  40   2.0000      -0.356295        -9.6953 
  41   2.0000      -0.342908        -9.3310 
  42   2.0000      -0.333965        -9.0877 
  43   2.0000      -0.327411        -8.9093 
  44   2.0000      -0.322546        -8.7769 
  45   2.0000      -0.319455        -8.6928 
  46   2.0000      -0.310157        -8.4398 
  47   2.0000      -0.300246        -8.1701 
  48   2.0000      -0.295663        -8.0454 
  49   2.0000      -0.289117        -7.8673 
  50   2.0000      -0.284904        -7.7526 
  51   2.0000      -0.279903        -7.6165 
  52   2.0000      -0.274416        -7.4672 
  53   2.0000      -0.246481        -6.7071 
  54   2.0000      -0.234146        -6.3714 
  55   2.0000      -0.216935        -5.9031 
  56   0.0000      -0.051614        -1.4045 
  57   0.0000      -0.046674        -1.2701 
  58   0.0000      -0.041376        -1.1259 
  59   0.0000       0.013168         0.3583 
  60   0.0000       0.026265         0.7147 
  61   0.0000       0.040587         1.1044 
  62   0.0000       0.044195         1.2026 
  63   0.0000       0.053560         1.4575 
  64   0.0000       0.058353         1.5879 
  65   0.0000       0.061087         1.6623 
  66   0.0000       0.069329         1.8865 
  67   0.0000       0.080489         2.1902 
  68   0.0000       0.083006         2.2587 
  69   0.0000       0.089792         2.4434 
  70   0.0000       0.091566         2.4916 
  71   0.0000       0.100046         2.7224 
  72   0.0000       0.106926         2.9096 
  73   0.0000       0.112532         3.0621 
  74   0.0000       0.120962         3.2915 
  75   0.0000       0.126053         3.4301 
  76   0.0000       0.129583         3.5261 
  77   0.0000       0.132626         3.6089 
  78   0.0000       0.139715         3.8018 
  79   0.0000       0.141319         3.8455 
  80   0.0000       0.144594         3.9346 
  81   0.0000       0.147255         4.0070 
  82   0.0000       0.154194         4.1958 
  83   0.0000       0.162588         4.4242 
  84   0.0000       0.179332         4.8799 
  85   0.0000       0.180088         4.9004 
  86   0.0000       0.182392         4.9631 
  87   0.0000       0.188533         5.1302 
  88   0.0000       0.193085         5.2541 
  89   0.0000       0.201344         5.4788 
  90   0.0000       0.204050         5.5525 
  91   0.0000       0.217122         5.9082 
  92   0.0000       0.219489         5.9726 
  93   0.0000       0.226808         6.1718 
  94   0.0000       0.233375         6.3505 
  95   0.0000       0.237769         6.4700 
  96   0.0000       0.241310         6.5664 
  97   0.0000       0.252811         6.8793 
  98   0.0000       0.257045         6.9945 
  99   0.0000       0.259485         7.0609 
 100   0.0000       0.263636         7.1739 
 101   0.0000       0.269230         7.3261 
 102   0.0000       0.277424         7.5491 
 103   0.0000       0.286398         7.7933 
 104   0.0000       0.289861         7.8875 
 105   0.0000       0.296618         8.0714 
 106   0.0000       0.300222         8.1695 
 107   0.0000       0.302470         8.2306 
 108   0.0000       0.309885         8.4324 
 109   0.0000       0.321576         8.7505 
 110   0.0000       0.327969         8.9245 
 111   0.0000       0.338706         9.2167 
 112   0.0000       0.341409         9.2902 
 113   0.0000       0.350954         9.5499 
 114   0.0000       0.358908         9.7664 
 115   0.0000       0.360447         9.8083 
 116   0.0000       0.362158         9.8548 
 117   0.0000       0.371796        10.1171 
 118   0.0000       0.376772        10.2525 
 119   0.0000       0.383357        10.4317 
 120   0.0000       0.388907        10.5827 
 121   0.0000       0.391212        10.6454 
 122   0.0000       0.395524        10.7628 
 123   0.0000       0.397129        10.8064 
 124   0.0000       0.400428        10.8962 
 125   0.0000       0.405602        11.0370 
 126   0.0000       0.411444        11.1960 
 127   0.0000       0.418120        11.3776 
 128   0.0000       0.421682        11.4745 
 129   0.0000       0.430984        11.7277 
 130   0.0000       0.433374        11.7927 
 131   0.0000       0.435105        11.8398 
 132   0.0000       0.437821        11.9137 
 133   0.0000       0.438709        11.9379 
 134   0.0000       0.447030        12.1643 
 135   0.0000       0.449544        12.2327 
 136   0.0000       0.450729        12.2650 
 137   0.0000       0.458354        12.4725 
 138   0.0000       0.460470        12.5300 
 139   0.0000       0.466131        12.6841 
 140   0.0000       0.475220        12.9314 
 141   0.0000       0.481973        13.1151 
 142   0.0000       0.484846        13.1933 
 143   0.0000       0.499948        13.6043 
 144   0.0000       0.512422        13.9437 
 145   0.0000       0.516627        14.0581 
 146   0.0000       0.525987        14.3128 
 147   0.0000       0.536225        14.5914 
 148   0.0000       0.546143        14.8613 
 149   0.0000       0.554493        15.0885 
 150   0.0000       0.556821        15.1519 
 151   0.0000       0.570123        15.5138 
 152   0.0000       0.573660        15.6101 
 153   0.0000       0.579707        15.7746 
 154   0.0000       0.586563        15.9612 
 155   0.0000       0.601243        16.3607 
 156   0.0000       0.603254        16.4154 
 157   0.0000       0.617134        16.7931 
 158   0.0000       0.623914        16.9776 
 159   0.0000       0.638515        17.3749 
 160   0.0000       0.643486        17.5101 
 161   0.0000       0.649430        17.6719 
 162   0.0000       0.657272        17.8853 
 163   0.0000       0.674132        18.3441 
 164   0.0000       0.681214        18.5368 
 165   0.0000       0.694709        18.9040 
 166   0.0000       0.702587        19.1184 
 167   0.0000       0.706196        19.2166 
 168   0.0000       0.710607        19.3366 
 169   0.0000       0.731800        19.9133 
 170   0.0000       0.742508        20.2047 
 171   0.0000       0.744476        20.2582 
 172   0.0000       0.760733        20.7006 
 173   0.0000       0.773793        21.0560 
 174   0.0000       0.782415        21.2906 
 175   0.0000       0.793147        21.5826 
 176   0.0000       0.801669        21.8145 
 177   0.0000       0.803096        21.8534 
 178   0.0000       0.820291        22.3213 
 179   0.0000       0.823775        22.4160 
 180   0.0000       0.829559        22.5734 
 181   0.0000       0.834827        22.7168 
 182   0.0000       0.844692        22.9852 
 183   0.0000       0.851694        23.1758 
 184   0.0000       0.871954        23.7271 
 185   0.0000       0.879257        23.9258 
 186   0.0000       0.885747        24.1024 
 187   0.0000       0.891922        24.2704 
 188   0.0000       0.899549        24.4780 
 189   0.0000       0.908297        24.7160 
 190   0.0000       0.930693        25.3254 
 191   0.0000       0.936022        25.4705 
 192   0.0000       0.944606        25.7040 
 193   0.0000       0.966042        26.2873 
 194   0.0000       0.974894        26.5282 
 195   0.0000       0.977861        26.6089 
 196   0.0000       0.984512        26.7899 
 197   0.0000       0.996204        27.1081 
 198   0.0000       1.013325        27.5740 
 199   0.0000       1.019782        27.7497 
 200   0.0000       1.028993        28.0003 
 201   0.0000       1.037760        28.2389 
 202   0.0000       1.044027        28.4094 
 203   0.0000       1.051437        28.6110 
 204   0.0000       1.065902        29.0047 
 205   0.0000       1.083393        29.4806 
 206   0.0000       1.087312        29.5873 
 207   0.0000       1.100317        29.9411 
 208   0.0000       1.111558        30.2470 
 209   0.0000       1.124397        30.5964 
 210   0.0000       1.135555        30.9000 
 211   0.0000       1.148386        31.2492 
 212   0.0000       1.159195        31.5433 
 213   0.0000       1.177893        32.0521 
 214   0.0000       1.179468        32.0950 
 215   0.0000       1.191576        32.4244 
 216   0.0000       1.196857        32.5681 
 217   0.0000       1.212095        32.9828 
 218   0.0000       1.216895        33.1134 
 219   0.0000       1.234953        33.6048 
 220   0.0000       1.237049        33.6618 
 221   0.0000       1.251405        34.0525 
 222   0.0000       1.270337        34.5676 
 223   0.0000       1.273970        34.6665 
 224   0.0000       1.288980        35.0749 
 225   0.0000       1.298871        35.3441 
 226   0.0000       1.310947        35.6727 
 227   0.0000       1.323948        36.0265 
 228   0.0000       1.338989        36.4358 
 229   0.0000       1.355525        36.8857 
 230   0.0000       1.370413        37.2908 
 231   0.0000       1.388518        37.7835 
 232   0.0000       1.392280        37.8859 
 233   0.0000       1.403150        38.1816 
 234   0.0000       1.415778        38.5253 
 235   0.0000       1.431497        38.9530 
 236   0.0000       1.435397        39.0591 
 237   0.0000       1.443145        39.2700 
 238   0.0000       1.467492        39.9325 
 239   0.0000       1.469760        39.9942 
 240   0.0000       1.483888        40.3786 
 241   0.0000       1.491806        40.5941 
 242   0.0000       1.500583        40.8329 
 243   0.0000       1.503625        40.9157 
 244   0.0000       1.505779        40.9743 
 245   0.0000       1.510004        41.0893 
 246   0.0000       1.524057        41.4717 
 247   0.0000       1.530605        41.6499 
 248   0.0000       1.537729        41.8437 
 249   0.0000       1.541431        41.9445 
 250   0.0000       1.549764        42.1712 
 251   0.0000       1.554147        42.2905 
 252   0.0000       1.566356        42.6227 
 253   0.0000       1.569063        42.6964 
 254   0.0000       1.574359        42.8405 
 255   0.0000       1.584986        43.1297 
 256   0.0000       1.594840        43.3978 
 257   0.0000       1.598706        43.5030 
 258   0.0000       1.604930        43.6724 
 259   0.0000       1.615530        43.9608 
 260   0.0000       1.619982        44.0819 
 261   0.0000       1.621508        44.1235 
 262   0.0000       1.642248        44.6878 
 263   0.0000       1.661607        45.2146 
 264   0.0000       1.669709        45.4351 
 265   0.0000       1.676044        45.6075 
 266   0.0000       1.692016        46.0421 
 267   0.0000       1.700655        46.2772 
 268   0.0000       1.709751        46.5247 
 269   0.0000       1.718246        46.7558 
 270   0.0000       1.725174        46.9444 
 271   0.0000       1.731572        47.1185 
 272   0.0000       1.746027        47.5118 
 273   0.0000       1.765072        48.0301 
 274   0.0000       1.778233        48.3882 
 275   0.0000       1.800423        48.9920 
 276   0.0000       1.812450        49.3193 
 277   0.0000       1.818883        49.4943 
 278   0.0000       1.825537        49.6754 
 279   0.0000       1.838236        50.0209 
 280   0.0000       1.850719        50.3606 
 281   0.0000       1.867978        50.8303 
 282   0.0000       1.874982        51.0209 
 283   0.0000       1.884197        51.2716 
 284   0.0000       1.894361        51.5482 
 285   0.0000       1.918717        52.2109 
 286   0.0000       1.921886        52.2972 
 287   0.0000       1.938335        52.7448 
 288   0.0000       1.947878        53.0045 
 289   0.0000       1.968087        53.5544 
 290   0.0000       1.982578        53.9487 
 291   0.0000       2.006255        54.5930 
 292   0.0000       2.014461        54.8163 
 293   0.0000       2.030612        55.2558 
 294   0.0000       2.041092        55.5409 
 295   0.0000       2.045681        55.6658 
 296   0.0000       2.052754        55.8583 
 297   0.0000       2.063191        56.1423 
 298   0.0000       2.076583        56.5067 
 299   0.0000       2.080860        56.6231 
 300   0.0000       2.094788        57.0021 
 301   0.0000       2.103782        57.2468 
 302   0.0000       2.110937        57.4415 
 303   0.0000       2.120171        57.6928 
 304   0.0000       2.124637        57.8143 
 305   0.0000       2.136368        58.1335 
 306   0.0000       2.143018        58.3145 
 307   0.0000       2.155890        58.6647 
 308   0.0000       2.173435        59.1422 
 309   0.0000       2.189495        59.5792 
 310   0.0000       2.201709        59.9116 
 311   0.0000       2.216855        60.3237 
 312   0.0000       2.231615        60.7253 
 313   0.0000       2.245095        61.0921 
 314   0.0000       2.247755        61.1645 
 315   0.0000       2.256230        61.3951 
 316   0.0000       2.267393        61.6989 
 317   0.0000       2.274003        61.8788 
 318   0.0000       2.292600        62.3848 
 319   0.0000       2.301081        62.6156 
 320   0.0000       2.309612        62.8477 
 321   0.0000       2.316232        63.0279 
 322   0.0000       2.327624        63.3379 
 323   0.0000       2.335835        63.5613 
 324   0.0000       2.340983        63.7014 
 325   0.0000       2.353736        64.0484 
 326   0.0000       2.360147        64.2229 
 327   0.0000       2.371204        64.5237 
 328   0.0000       2.379640        64.7533 
 329   0.0000       2.407157        65.5021 
 330   0.0000       2.419049        65.8257 
 331   0.0000       2.431260        66.1580 
 332   0.0000       2.444868        66.5282 
 333   0.0000       2.458454        66.8979 
 334   0.0000       2.462922        67.0195 
 335   0.0000       2.476476        67.3883 
 336   0.0000       2.488706        67.7211 
 337   0.0000       2.508353        68.2558 
 338   0.0000       2.509072        68.2753 
 339   0.0000       2.514373        68.4196 
 340   0.0000       2.518288        68.5261 
 341   0.0000       2.530353        68.8544 
 342   0.0000       2.536744        69.0283 
 343   0.0000       2.545774        69.2740 
 344   0.0000       2.546787        69.3016 
 345   0.0000       2.552998        69.4706 
 346   0.0000       2.559619        69.6508 
 347   0.0000       2.569200        69.9115 
 348   0.0000       2.583873        70.3108 
 349   0.0000       2.585368        70.3514 
 350   0.0000       2.603898        70.8557 
 351   0.0000       2.617507        71.2260 
 352   0.0000       2.617971        71.2386 
 353   0.0000       2.640284        71.8458 
 354   0.0000       2.644908        71.9716 
 355   0.0000       2.650118        72.1134 
 356   0.0000       2.655056        72.2477 
 357   0.0000       2.663687        72.4826 
 358   0.0000       2.669894        72.6515 
 359   0.0000       2.686311        73.0982 
 360   0.0000       2.703455        73.5648 
 361   0.0000       2.706892        73.6583 
 362   0.0000       2.707887        73.6854 
 363   0.0000       2.726132        74.1818 
 364   0.0000       2.729380        74.2702 
 365   0.0000       2.744551        74.6830 
 366   0.0000       2.756153        74.9987 
 367   0.0000       2.761381        75.1410 
 368   0.0000       2.764419        75.2237 
 369   0.0000       2.779523        75.6347 
 370   0.0000       2.789430        75.9042 
 371   0.0000       2.799292        76.1726 
 372   0.0000       2.809730        76.4566 
 373   0.0000       2.814926        76.5980 
 374   0.0000       2.816825        76.6497 
 375   0.0000       2.831279        77.0430 
 376   0.0000       2.852458        77.6193 
 377   0.0000       2.866752        78.0083 
 378   0.0000       2.883865        78.4739 
 379   0.0000       2.892046        78.6966 
 380   0.0000       2.914192        79.2992 
 381   0.0000       2.921618        79.5013 
 382   0.0000       2.927154        79.6519 
 383   0.0000       2.936366        79.9026 
 384   0.0000       2.947675        80.2103 
 385   0.0000       2.960791        80.5672 
 386   0.0000       2.966776        80.7301 
 387   0.0000       2.987259        81.2875 
 388   0.0000       2.998631        81.5969 
 389   0.0000       3.003180        81.7207 
 390   0.0000       3.018214        82.1298 
 391   0.0000       3.021410        82.2167 
 392   0.0000       3.032045        82.5062 
 393   0.0000       3.043268        82.8115 
 394   0.0000       3.052893        83.0735 
 395   0.0000       3.060655        83.2847 
 396   0.0000       3.070147        83.5429 
 397   0.0000       3.079584        83.7997 
 398   0.0000       3.082089        83.8679 
 399   0.0000       3.092164        84.1421 
 400   0.0000       3.096193        84.2517 
 401   0.0000       3.109936        84.6257 
 402   0.0000       3.113015        84.7095 
 403   0.0000       3.116791        84.8122 
 404   0.0000       3.135820        85.3300 
 405   0.0000       3.141022        85.4715 
 406   0.0000       3.153957        85.8235 
 407   0.0000       3.167949        86.2043 
 408   0.0000       3.172781        86.3358 
 409   0.0000       3.178603        86.4942 
 410   0.0000       3.205015        87.2129 
 411   0.0000       3.209424        87.3329 
 412   0.0000       3.221972        87.6743 
 413   0.0000       3.228975        87.8649 
 414   0.0000       3.235941        88.0544 
 415   0.0000       3.240684        88.1835 
 416   0.0000       3.252381        88.5018 
 417   0.0000       3.257636        88.6448 
 418   0.0000       3.261448        88.7485 
 419   0.0000       3.271493        89.0218 
 420   0.0000       3.280123        89.2567 
 421   0.0000       3.287874        89.4676 
 422   0.0000       3.293165        89.6116 
 423   0.0000       3.302429        89.8637 
 424   0.0000       3.312640        90.1415 
 425   0.0000       3.319414        90.3258 
 426   0.0000       3.327824        90.5547 
 427   0.0000       3.331366        90.6511 
 428   0.0000       3.343251        90.9745 
 429   0.0000       3.345758        91.0427 
 430   0.0000       3.360273        91.4377 
 431   0.0000       3.364928        91.5643 
 432   0.0000       3.379104        91.9501 
 433   0.0000       3.389871        92.2431 
 434   0.0000       3.391497        92.2873 
 435   0.0000       3.401100        92.5486 
 436   0.0000       3.417441        92.9933 
 437   0.0000       3.426755        93.2467 
 438   0.0000       3.436431        93.5101 
 439   0.0000       3.452182        93.9386 
 440   0.0000       3.455785        94.0367 
 441   0.0000       3.466726        94.3344 
 442   0.0000       3.473005        94.5053 
 443   0.0000       3.483821        94.7996 
 444   0.0000       3.502629        95.3114 
 445   0.0000       3.513089        95.5960 
 446   0.0000       3.522744        95.8587 
 447   0.0000       3.528985        96.0286 
 448   0.0000       3.543657        96.4278 
 449   0.0000       3.548212        96.5518 
 450   0.0000       3.567201        97.0685 
 451   0.0000       3.571626        97.1889 
 452   0.0000       3.583461        97.5109 
 453   0.0000       3.596653        97.8699 
 454   0.0000       3.598086        97.9089 
 455   0.0000       3.610761        98.2538 
 456   0.0000       3.621666        98.5505 
 457   0.0000       3.637803        98.9896 
 458   0.0000       3.655582        99.4734 
 459   0.0000       3.695556       100.5612 
 460   0.0000       3.697515       100.6145 
 461   0.0000       3.708316       100.9084 
 462   0.0000       3.735810       101.6566 
 463   0.0000       3.754524       102.1658 
 464   0.0000       3.793946       103.2385 
 465   0.0000       3.800751       103.4237 
 466   0.0000       3.824495       104.0698 
 467   0.0000       3.835398       104.3665 
 468   0.0000       3.851488       104.8043 
 469   0.0000       3.873528       105.4041 
 470   0.0000       3.887760       105.7913 
 471   0.0000       3.917814       106.6091 
 472   0.0000       3.932596       107.0114 
 473   0.0000       3.938881       107.1824 
 474   0.0000       3.947635       107.4206 
 475   0.0000       3.949737       107.4778 
 476   0.0000       3.959094       107.7324 
 477   0.0000       3.977321       108.2284 
 478   0.0000       3.984501       108.4238 
 479   0.0000       3.986089       108.4670 
 480   0.0000       4.023957       109.4974 
 481   0.0000       4.041270       109.9685 
 482   0.0000       4.055504       110.3559 
 483   0.0000       4.068112       110.6990 
 484   0.0000       4.095819       111.4529 
 485   0.0000       4.108999       111.8116 
 486   0.0000       4.123245       112.1992 
 487   0.0000       4.133154       112.4688 
 488   0.0000       4.154261       113.0432 
 489   0.0000       4.162442       113.2658 
 490   0.0000       4.176130       113.6383 
 491   0.0000       4.181213       113.7766 
 492   0.0000       4.196180       114.1839 
 493   0.0000       4.232584       115.1745 
 494   0.0000       4.236786       115.2888 
 495   0.0000       4.266318       116.0924 
 496   0.0000       4.276179       116.3607 
 497   0.0000       4.308165       117.2311 
 498   0.0000       4.317077       117.4736 
 499   0.0000       4.321337       117.5896 
 500   0.0000       4.336098       117.9912 
 501   0.0000       4.346907       118.2854 
 502   0.0000       4.389717       119.4503 
 503   0.0000       4.392116       119.5156 
 504   0.0000       4.404920       119.8640 
 505   0.0000       4.425810       120.4324 
 506   0.0000       4.445173       120.9593 
 507   0.0000       4.454866       121.2231 
 508   0.0000       4.480094       121.9096 
 509   0.0000       4.520280       123.0031 
 510   0.0000       4.526007       123.1589 
 511   0.0000       4.557741       124.0224 
 512   0.0000       4.575879       124.5160 
 513   0.0000       4.587490       124.8319 
 514   0.0000       4.602136       125.2305 
 515   0.0000       4.630459       126.0012 
 516   0.0000       4.704552       128.0174 
 517   0.0000       4.717262       128.3632 
 518   0.0000       4.745765       129.1388 
 519   0.0000       4.769903       129.7956 
 520   0.0000       4.799651       130.6051 
 521   0.0000       4.812967       130.9675 
 522   0.0000       4.824683       131.2863 
 523   0.0000       4.869561       132.5075 
 524   0.0000       4.914251       133.7236 
 525   0.0000       4.941559       134.4667 
 526   0.0000       4.968830       135.2087 
 527   0.0000       5.030668       136.8914 
 528   0.0000       5.063808       137.7932 
 529   0.0000       5.072616       138.0329 
 530   0.0000       5.126756       139.5061 
 531   0.0000       5.156199       140.3073 
 532   0.0000       5.190867       141.2507 
 533   0.0000       5.208501       141.7305 
 534   0.0000       5.218814       142.0111 
 535   0.0000       5.364299       145.9700 
 536   0.0000       5.372955       146.2055 
 537   0.0000       5.448233       148.2540 
 538   0.0000       5.455142       148.4420 
 539   0.0000       5.508000       149.8803 
 540   0.0000       5.604726       152.5124 
 541   0.0000       5.634133       153.3126 
 542   0.0000       5.747376       156.3941 
 543   0.0000       5.791794       157.6027 
 544   0.0000       5.989656       162.9868 
 545   0.0000       6.102441       166.0558 
 546   0.0000       6.208792       168.9498 
[...]

----------------------
LOEWDIN ATOMIC CHARGES
----------------------
   0 C :   -0.297527
   1 C :   -0.307129
   2 C :   -0.299181
   3 C :   -0.200202
   4 C :   -0.144493
   5 C :   -0.112382
   6 C :   -0.119184
   7 C :   -0.149282
   8 C :   -0.109767
   9 C :   -0.115393
  10 C :   -0.221333
  11 C :   -0.273219
  12 C :   -0.482915
  13 O :    0.113607
  14 O :    0.077250
  15 H :    0.125610
  16 H :    0.125729
  17 H :    0.125607
  18 H :    0.154641
  19 H :    0.125453
  20 H :    0.125460
  21 H :    0.124765
  22 H :    0.151270
  23 H :    0.154454
  24 H :    0.156511
  25 H :    0.157235
  26 H :    0.159036
  27 H :    0.155505
  28 H :    0.190190
  29 H :    0.131241
  30 H :    0.132842
  31 H :    0.130521
  32 H :    0.215078

-------------------------------
LOEWDIN REDUCED ORBITAL CHARGES
-------------------------------
  0 C s       :     2.837432  s :     2.837432
      pz      :     1.063260  p :     3.177937
      px      :     1.068581
      py      :     1.046096
      dz2     :     0.061611  d :     0.258080
      dxz     :     0.019685
      dyz     :     0.056469
      dx2y2   :     0.063351
      dxy     :     0.056963
      f0      :     0.002396  f :     0.024079
      f+1     :     0.002729
      f-1     :     0.003741
      f+2     :     0.002884
      f-2     :     0.004338
      f+3     :     0.004955
      f-3     :     0.003036
  1 C s       :     2.743987  s :     2.743987
      pz      :     0.982293  p :     2.985012
      px      :     0.998085
      py      :     1.004634
      dz2     :     0.097848  d :     0.525966
      dxz     :     0.104118
      dyz     :     0.114967
      dx2y2   :     0.103868
      dxy     :     0.105164
      f0      :     0.008312  f :     0.052164
      f+1     :     0.005885
      f-1     :     0.008354
      f+2     :     0.007306
      f-2     :     0.006963
      f+3     :     0.007751
      f-3     :     0.007593
  2 C s       :     2.839295  s :     2.839295
      pz      :     1.072472  p :     3.177041
      px      :     1.034346
      py      :     1.070223
      dz2     :     0.036419  d :     0.258782
      dxz     :     0.074809
      dyz     :     0.025815
      dx2y2   :     0.054633
      dxy     :     0.067106
      f0      :     0.003686  f :     0.024063
      f+1     :     0.003259
      f-1     :     0.000720
      f+2     :     0.003958
      f-2     :     0.003073
      f+3     :     0.004145
      f-3     :     0.005221
  3 C s       :     2.772614  s :     2.772614
      pz      :     1.005971  p :     3.015428
      px      :     0.985635
      py      :     1.023822
      dz2     :     0.064638  d :     0.375585
      dxz     :     0.096716
      dyz     :     0.078966
      dx2y2   :     0.069451
      dxy     :     0.065814
      f0      :     0.007394  f :     0.036574
      f+1     :     0.005680
      f-1     :     0.003883
      f+2     :     0.004985
      f-2     :     0.004987
      f+3     :     0.004333
      f-3     :     0.005312
  4 C s       :     2.717748  s :     2.717748
      pz      :     0.858626  p :     2.853788
      px      :     0.982564
      py      :     1.012598
      dz2     :     0.053440  d :     0.516903
      dxz     :     0.086269
      dyz     :     0.071291
      dx2y2   :     0.158309
      dxy     :     0.147594
      f0      :     0.004310  f :     0.056053
      f+1     :     0.005302
      f-1     :     0.004474
      f+2     :     0.008509
      f-2     :     0.006956
      f+3     :     0.008581
      f-3     :     0.017920
  5 C s       :     2.765876  s :     2.765876
      pz      :     0.907639  p :     2.928675
      px      :     1.041012
      py      :     0.980024
      dz2     :     0.027156  d :     0.376653
      dxz     :     0.075195
      dyz     :     0.035642
      dx2y2   :     0.114384
      dxy     :     0.124276
      f0      :     0.003761  f :     0.041178
      f+1     :     0.004440
      f-1     :     0.002615
      f+2     :     0.006331
      f-2     :     0.004206
      f+3     :     0.007303
      f-3     :     0.012522
  6 C s       :     2.767036  s :     2.767036
      pz      :     0.908894  p :     2.928354
      px      :     1.037384
      py      :     0.982076
      dz2     :     0.032640  d :     0.382394
      dxz     :     0.074534
      dyz     :     0.037626
      dx2y2   :     0.097915
      dxy     :     0.139680
      f0      :     0.003844  f :     0.041400
      f+1     :     0.003578
      f-1     :     0.003631
      f+2     :     0.007386
      f-2     :     0.003608
      f+3     :     0.006806
      f-3     :     0.012547
  7 C s       :     2.713950  s :     2.713950
      pz      :     0.891984  p :     2.866167
      px      :     0.953843
      py      :     1.020341
      dz2     :     0.057340  d :     0.513814
      dxz     :     0.080361
      dyz     :     0.073588
      dx2y2   :     0.160260
      dxy     :     0.142266
      f0      :     0.004276  f :     0.055350
      f+1     :     0.005380
      f-1     :     0.004249
      f+2     :     0.008332
      f-2     :     0.007084
      f+3     :     0.008476
      f-3     :     0.017552
  8 C s       :     2.764637  s :     2.764637
      pz      :     0.904920  p :     2.924687
      px      :     1.041349
      py      :     0.978417
      dz2     :     0.027458  d :     0.378944
      dxz     :     0.077740
      dyz     :     0.036629
      dx2y2   :     0.111487
      dxy     :     0.125630
      f0      :     0.003771  f :     0.041500
      f+1     :     0.004566
      f-1     :     0.002709
      f+2     :     0.006373
      f-2     :     0.004348
      f+3     :     0.007335
      f-3     :     0.012398
  9 C s       :     2.767117  s :     2.767117
      pz      :     0.910650  p :     2.928631
      px      :     1.035267
      py      :     0.982714
      dz2     :     0.031806  d :     0.378454
      dxz     :     0.072488
      dyz     :     0.036936
      dx2y2   :     0.098507
      dxy     :     0.138717
      f0      :     0.003870  f :     0.041191
      f+1     :     0.003560
      f-1     :     0.003464
      f+2     :     0.007362
      f-2     :     0.003572
      f+3     :     0.006789
      f-3     :     0.012574
 10 C s       :     2.733786  s :     2.733786
      pz      :     1.002691  p :     2.957500
      px      :     0.971902
      py      :     0.982907
      dz2     :     0.092973  d :     0.480940
      dxz     :     0.113596
      dyz     :     0.109716
      dx2y2   :     0.082474
      dxy     :     0.082180
      f0      :     0.008493  f :     0.049106
      f+1     :     0.006672
      f-1     :     0.007011
      f+2     :     0.007339
      f-2     :     0.007098
      f+3     :     0.005977
      f-3     :     0.006517
 11 C s       :     2.835029  s :     2.835029
      pz      :     1.018122  p :     3.165707
      px      :     1.068209
      py      :     1.079376
      dz2     :     0.056690  d :     0.248524
      dxz     :     0.045431
      dyz     :     0.081229
      dx2y2   :     0.050205
      dxy     :     0.014968
      f0      :     0.005607  f :     0.023960
      f+1     :     0.005472
      f-1     :     0.003672
      f+2     :     0.002041
      f-2     :     0.003996
      f+3     :     0.002697
      f-3     :     0.000474
 12 C s       :     2.777694  s :     2.777694
      pz      :     0.874833  p :     2.650111
      px      :     0.863252
      py      :     0.912025
      dz2     :     0.222536  d :     0.910034
      dxz     :     0.205351
      dyz     :     0.183030
      dx2y2   :     0.154572
      dxy     :     0.144544
      f0      :     0.027470  f :     0.145076
      f+1     :     0.022491
      f-1     :     0.028707
      f+2     :     0.012405
      f-2     :     0.019974
      f+3     :     0.018530
      f-3     :     0.015499
 13 O s       :     3.344078  s :     3.344078
      pz      :     1.474700  p :     4.468743
      px      :     1.445866
      py      :     1.548178
      dz2     :     0.025369  d :     0.068843
      dxz     :     0.014152
      dyz     :     0.012365
      dx2y2   :     0.002765
      dxy     :     0.014193
      f0      :     0.000955  f :     0.004729
      f+1     :     0.001292
      f-1     :     0.001036
      f+2     :     0.000415
      f-2     :     0.000306
      f+3     :     0.000277
      f-3     :     0.000449
 14 O s       :     3.407302  s :     3.407302
      pz      :     1.574698  p :     4.444885
      px      :     1.417960
      py      :     1.452227
      dz2     :     0.009642  d :     0.064608
      dxz     :     0.012179
      dyz     :     0.008644
      dx2y2   :     0.012777
      dxy     :     0.021365
      f0      :     0.000625  f :     0.005954
      f+1     :     0.000760
      f-1     :     0.000577
      f+2     :     0.000387
      f-2     :     0.001294
      f+3     :     0.001107
      f-3     :     0.001204
 15 H s       :     0.813581  s :     0.813581
      pz      :     0.031935  p :     0.060809
      px      :     0.015956
      py      :     0.012917
 16 H s       :     0.813668  s :     0.813668
      pz      :     0.019211  p :     0.060603
      px      :     0.017644
      py      :     0.023748
 17 H s       :     0.812735  s :     0.812735
      pz      :     0.013389  p :     0.061658
      px      :     0.034671
      py      :     0.013597
 18 H s       :     0.788890  s :     0.788890
      pz      :     0.018340  p :     0.056469
      px      :     0.016424
      py      :     0.021706
 19 H s       :     0.813889  s :     0.813889
      pz      :     0.019911  p :     0.060658
      px      :     0.017646
      py      :     0.023101
 20 H s       :     0.813721  s :     0.813721
      pz      :     0.032085  p :     0.060819
      px      :     0.015367
      py      :     0.013367
 21 H s       :     0.814487  s :     0.814487
      pz      :     0.016369  p :     0.060748
      px      :     0.013352
      py      :     0.031027
 22 H s       :     0.790673  s :     0.790673
      pz      :     0.019198  p :     0.058058
      px      :     0.015109
      py      :     0.023751
 23 H s       :     0.787123  s :     0.787123
      pz      :     0.015535  p :     0.058422
      px      :     0.013661
      py      :     0.029226
 24 H s       :     0.784585  s :     0.784585
      pz      :     0.016397  p :     0.058904
      px      :     0.014879
      py      :     0.027627
 25 H s       :     0.783729  s :     0.783729
      pz      :     0.015344  p :     0.059036
      px      :     0.018424
      py      :     0.025268
 26 H s       :     0.781791  s :     0.781791
      pz      :     0.016542  p :     0.059173
      px      :     0.014869
      py      :     0.027762
 27 H s       :     0.785598  s :     0.785598
      pz      :     0.015450  p :     0.058897
      px      :     0.018366
      py      :     0.025082
 28 H s       :     0.752436  s :     0.752436
      pz      :     0.016117  p :     0.057375
      px      :     0.014512
      py      :     0.026746
 29 H s       :     0.807281  s :     0.807281
      pz      :     0.016863  p :     0.061478
      px      :     0.015898
      py      :     0.028717
 30 H s       :     0.805940  s :     0.805940
      pz      :     0.017578  p :     0.061218
      px      :     0.015856
      py      :     0.027784
 31 H s       :     0.807736  s :     0.807736
      pz      :     0.012357  p :     0.061742
      px      :     0.035916
      py      :     0.013469
 32 H s       :     0.637477  s :     0.637477
      pz      :     0.026873  p :     0.147445
      px      :     0.061233
      py      :     0.059339


                      *****************************
                      * MAYER POPULATION ANALYSIS *
                      *****************************

  NA   - Mulliken gross atomic population
  ZA   - Total nuclear charge
  QA   - Mulliken gross atomic charge
  VA   - Mayer's total valence
  BVA  - Mayer's bonded valence
  FA   - Mayer's free valence

  ATOM       NA         ZA         QA         VA         BVA        FA
  0 C      6.4012     6.0000    -0.4012     3.9164     3.9164     0.0000
  1 C      6.0232     6.0000    -0.0232     3.9315     3.9315    -0.0000
  2 C      6.3775     6.0000    -0.3775     3.8878     3.8878    -0.0000
  3 C      6.2101     6.0000    -0.2101     3.8351     3.8351     0.0000
  4 C      5.7929     6.0000     0.2071     3.6369     3.6369     0.0000
  5 C      6.2343     6.0000    -0.2343     3.9150     3.9150    -0.0000
  6 C      6.1700     6.0000    -0.1700     3.8984     3.8984     0.0000
  7 C      5.9876     6.0000     0.0124     3.7538     3.7538     0.0000
  8 C      6.1959     6.0000    -0.1959     3.9082     3.9082     0.0000
  9 C      6.2232     6.0000    -0.2232     3.9324     3.9324     0.0000
 10 C      5.9839     6.0000     0.0161     3.6442     3.6442     0.0000
 11 C      6.4126     6.0000    -0.4126     3.9436     3.9436     0.0000
 12 C      5.7939     6.0000     0.2061     4.4530     4.4530    -0.0000
 13 O      8.3194     8.0000    -0.3194     2.1439     2.1439    -0.0000
 14 O      8.3334     8.0000    -0.3334     2.1939     2.1939     0.0000
 15 H      0.8733     1.0000     0.1267     0.9699     0.9699    -0.0000
 16 H      0.8871     1.0000     0.1129     0.9798     0.9798     0.0000
 17 H      0.8696     1.0000     0.1304     0.9713     0.9713     0.0000
 18 H      0.9193     1.0000     0.0807     0.9666     0.9666     0.0000
 19 H      0.8845     1.0000     0.1155     0.9788     0.9788     0.0000
 20 H      0.8734     1.0000     0.1266     0.9704     0.9704    -0.0000
 21 H      0.8752     1.0000     0.1248     0.9727     0.9727    -0.0000
 22 H      0.8838     1.0000     0.1162     0.9793     0.9793    -0.0000
 23 H      0.8855     1.0000     0.1145     0.9700     0.9700     0.0000
 24 H      0.8722     1.0000     0.1278     0.9709     0.9709    -0.0000
 25 H      0.8722     1.0000     0.1278     0.9727     0.9727    -0.0000
 26 H      0.8660     1.0000     0.1340     0.9712     0.9712    -0.0000
 27 H      0.8764     1.0000     0.1236     0.9734     0.9734    -0.0000
 28 H      0.8688     1.0000     0.1312     0.9728     0.9728     0.0000
 29 H      0.8647     1.0000     0.1353     0.9762     0.9762     0.0000
 30 H      0.8638     1.0000     0.1362     0.9704     0.9704     0.0000
 31 H      0.8640     1.0000     0.1360     0.9760     0.9760     0.0000
 32 H      0.6412     1.0000     0.3588     0.8938     0.8938    -0.0000

  Mayer bond orders larger than 0.100000
B(  0-C ,  1-C ) :   0.9998 B(  0-C , 15-H ) :   0.9654 B(  0-C , 16-H ) :   0.9613 
B(  0-C , 17-H ) :   0.9625 B(  1-C ,  2-C ) :   0.9746 B(  1-C ,  3-C ) :   0.9872 
B(  1-C , 18-H ) :   0.9395 B(  2-C , 19-H ) :   0.9626 B(  2-C , 20-H ) :   0.9658 
B(  2-C , 21-H ) :   0.9647 B(  3-C ,  4-C ) :   0.9227 B(  3-C , 22-H ) :   0.9541 
B(  3-C , 23-H ) :   0.9339 B(  4-C ,  5-C ) :   1.3079 B(  4-C ,  9-C ) :   1.3134 
B(  5-C ,  6-C ) :   1.4017 B(  5-C , 24-H ) :   0.9850 B(  6-C ,  7-C ) :   1.3334 
B(  6-C , 25-H ) :   0.9770 B(  7-C ,  8-C ) :   1.3281 B(  7-C , 10-C ) :   0.9020 
B(  8-C ,  9-C ) :   1.4141 B(  8-C , 26-H ) :   0.9813 B(  9-C , 27-H ) :   0.9814 
B( 10-C , 11-C ) :   0.9821 B( 10-C , 12-C ) :   0.9652 B( 10-C , 28-H ) :   0.8952 
B( 11-C , 29-H ) :   0.9636 B( 11-C , 30-H ) :   0.9604 B( 11-C , 31-H ) :   0.9565 
B( 12-C , 13-O ) :   1.2541 B( 12-C , 14-O ) :   2.1060 B( 13-O , 32-H ) :   0.8347 


-------
TIMINGS
-------

Total SCF time: 0 days 0 hours 0 min 42 sec 

Total time                  ....      42.475 sec
Sum of individual times     ....      41.949 sec  ( 98.8%)

Fock matrix formation       ....      40.460 sec  ( 95.3%)
  Split-RI-J                ....       9.196 sec  ( 22.7% of F)
  XC integration            ....      14.391 sec  ( 35.6% of F)
    Basis function eval.    ....       4.272 sec  ( 29.7% of XC)
    Density eval.           ....       5.409 sec  ( 37.6% of XC)
    XC-Functional eval.     ....       0.258 sec  (  1.8% of XC)
    XC-Potential eval.      ....       3.635 sec  ( 25.3% of XC)
Diagonalization             ....       0.037 sec  (  0.1%)
Density matrix formation    ....       0.022 sec  (  0.1%)
Population analysis         ....       0.043 sec  (  0.1%)
Initial guess               ....       0.037 sec  (  0.1%)
Orbital Transformation      ....       0.000 sec  (  0.0%)
Orbital Orthonormalization  ....       0.029 sec  (  0.1%)
DIIS solution               ....       0.013 sec  (  0.0%)
SOSCF solution              ....       0.225 sec  (  0.5%)
Grid generation             ....       1.112 sec  (  2.6%)

Maximum memory used throughout the entire SCF-calculation: 323.6 MB

-------------------------   --------------------
FINAL SINGLE POINT ENERGY      -656.124193810691
-------------------------   --------------------

                                *** OPTIMIZATION RUN DONE ***

                            ***************************************
                            *     ORCA property calculations      *
                            ***************************************

                                    ---------------------
                                    Active property flags
                                    ---------------------
   (+) Dipole Moment


------------------------------------------------------------------------------
                       ORCA ELECTRIC PROPERTIES CALCULATION
------------------------------------------------------------------------------

Dipole Moment Calculation                       ... on
Quadrupole Moment Calculation                   ... off
Polarizability Calculation                      ... off
GBWName                                         ... Ibuprofeno\Ibuprofeno_PBE_def2-TZVP\Ibuprofeno_PBE_def2-TZVP.orcainp.gbw
Electron density                                ... Ibuprofeno\Ibuprofeno_PBE_def2-TZVP\Ibuprofeno_PBE_def2-TZVP.orcainp.scfp
The origin for moment calculation is the CENTER OF MASS  = (11.541927,  2.192433  2.906262)

-------------
DIPOLE MOMENT
-------------
                                X             Y             Z
Electronic contribution:     19.14753       2.61503      -1.32428
Nuclear contribution   :    -20.99248      -4.30255       1.37251
                        -----------------------------------------
Total Dipole Moment    :     -1.84495      -1.68752       0.04823
                        -----------------------------------------
Magnitude (a.u.)       :      2.50078
Magnitude (Debye)      :      6.35648



--------------------
Rotational spectrum 
--------------------
 
Rotational constants in cm-1:     0.047806     0.008499     0.008009 
Rotational constants in MHz :  1433.192955   254.797006   240.110712 

 Dipole components along the rotational axes: 
x,y,z [a.u.] :    -2.043728    -1.113490    -0.914997 
x,y,z [Debye]:    -5.194744    -2.830267    -2.325737 

 

Timings for individual modules:

Sum of individual times         ...     1574.305 sec (=  26.238 min)
GTO integral calculation        ...        8.447 sec (=   0.141 min)   0.5 %
SCF iterations                  ...     1177.446 sec (=  19.624 min)  74.8 %
SCF Gradient evaluation         ...      387.097 sec (=   6.452 min)  24.6 %
Geometry relaxation             ...        1.315 sec (=   0.022 min)   0.1 %
                             ****ORCA TERMINATED NORMALLY****
TOTAL RUN TIME: 0 days 0 hours 26 minutes 16 seconds 76 msec
