
                                 *****************
                                 * O   R   C   A *
                                 *****************

                                            #,                                       
                                            ###                                      
                                            ####                                     
                                            #####                                    
                                            ######                                   
                                           ########,                                 
                                     ,,################,,,,,                         
                               ,,#################################,,                 
                          ,,##########################################,,             
                       ,#########################################, ''#####,          
                    ,#############################################,,   '####,        
                  ,##################################################,,,,####,       
                ,###########''''           ''''###############################       
              ,#####''   ,,,,##########,,,,          '''####'''          '####       
            ,##' ,,,,###########################,,,                        '##       
           ' ,,###''''                  '''############,,,                           
         ,,##''                                '''############,,,,        ,,,,,,###''
      ,#''                                            '''#######################'''  
     '                                                          ''''####''''         
             ,#######,   #######,   ,#######,      ##                                
            ,#'     '#,  ##    ##  ,#'     '#,    #''#        ######   ,####,        
            ##       ##  ##   ,#'  ##            #'  '#       #        #'  '#        
            ##       ##  #######   ##           ,######,      #####,   #    #        
            '#,     ,#'  ##    ##  '#,     ,#' ,#      #,         ##   #,  ,#        
             '#######'   ##     ##  '#######'  #'      '#     #####' # '####'        



                  #######################################################
                  #                        -***-                        #
                  #          Department of theory and spectroscopy      #
                  #    Directorship and core code : Frank Neese         #
                  #        Max Planck Institute fuer Kohlenforschung    #
                  #                Kaiser Wilhelm Platz 1               #
                  #                 D-45470 Muelheim/Ruhr               #
                  #                      Germany                        #
                  #                                                     #
                  #                  All rights reserved                #
                  #                        -***-                        #
                  #######################################################



                         Program Version 5.0.4 -  RELEASE  -

 With contributions from (in alphabetic order):
   Daniel Aravena         : Magnetic Suceptibility
   Michael Atanasov       : Ab Initio Ligand Field Theory (pilot matlab implementation)
   Alexander A. Auer      : GIAO ZORA, VPT2 properties, NMR spectrum
   Ute Becker             : Parallelization
   Giovanni Bistoni       : ED, misc. LED, open-shell LED, HFLD
   Martin Brehm           : Molecular dynamics
   Dmytro Bykov           : SCF Hessian
   Vijay G. Chilkuri      : MRCI spin determinant printing, contributions to CSF-ICE
   Dipayan Datta          : RHF DLPNO-CCSD density
   Achintya Kumar Dutta   : EOM-CC, STEOM-CC
   Dmitry Ganyushin       : Spin-Orbit,Spin-Spin,Magnetic field MRCI
   Miquel Garcia          : C-PCM and meta-GGA Hessian, CC/C-PCM, Gaussian charge scheme
   Yang Guo               : DLPNO-NEVPT2, F12-NEVPT2, CIM, IAO-localization
   Andreas Hansen         : Spin unrestricted coupled pair/coupled cluster methods
   Benjamin Helmich-Paris : MC-RPA, TRAH-SCF, COSX integrals
   Lee Huntington         : MR-EOM, pCC
   Robert Izsak           : Overlap fitted RIJCOSX, COSX-SCS-MP3, EOM
   Marcus Kettner         : VPT2
   Christian Kollmar      : KDIIS, OOCD, Brueckner-CCSD(T), CCSD density, CASPT2, CASPT2-K
   Simone Kossmann        : Meta GGA functionals, TD-DFT gradient, OOMP2, MP2 Hessian
   Martin Krupicka        : Initial AUTO-CI
   Lucas Lang             : DCDCAS
   Marvin Lechner         : AUTO-CI (C++ implementation), FIC-MRCC
   Dagmar Lenk            : GEPOL surface, SMD
   Dimitrios Liakos       : Extrapolation schemes; Compound Job, initial MDCI parallelization
   Dimitrios Manganas     : Further ROCIS development; embedding schemes
   Dimitrios Pantazis     : SARC Basis sets
   Anastasios Papadopoulos: AUTO-CI, single reference methods and gradients
   Taras Petrenko         : DFT Hessian,TD-DFT gradient, ASA, ECA, R-Raman, ABS, FL, XAS/XES, NRVS
   Peter Pinski           : DLPNO-MP2, DLPNO-MP2 Gradient
   Christoph Reimann      : Effective Core Potentials
   Marius Retegan         : Local ZFS, SOC
   Christoph Riplinger    : Optimizer, TS searches, QM/MM, DLPNO-CCSD(T), (RO)-DLPNO pert. Triples
   Tobias Risthaus        : Range-separated hybrids, TD-DFT gradient, RPA, STAB
   Michael Roemelt        : Original ROCIS implementation
   Masaaki Saitow         : Open-shell DLPNO-CCSD energy and density
   Barbara Sandhoefer     : DKH picture change effects
   Avijit Sen             : IP-ROCIS
   Kantharuban Sivalingam : CASSCF convergence, NEVPT2, FIC-MRCI
   Bernardo de Souza      : ESD, SOC TD-DFT
   Georgi Stoychev        : AutoAux, RI-MP2 NMR, DLPNO-MP2 response
   Willem Van den Heuvel  : Paramagnetic NMR
   Boris Wezisla          : Elementary symmetry handling
   Frank Wennmohs         : Technical directorship


 We gratefully acknowledge several colleagues who have allowed us to
 interface, adapt or use parts of their codes:
   Stefan Grimme, W. Hujo, H. Kruse, P. Pracht,  : VdW corrections, initial TS optimization,
                  C. Bannwarth, S. Ehlert          DFT functionals, gCP, sTDA/sTD-DF
   Ed Valeev, F. Pavosevic, A. Kumar             : LibInt (2-el integral package), F12 methods
   Garnet Chan, S. Sharma, J. Yang, R. Olivares  : DMRG
   Ulf Ekstrom                                   : XCFun DFT Library
   Mihaly Kallay                                 : mrcc  (arbitrary order and MRCC methods)
   Jiri Pittner, Ondrej Demel                    : Mk-CCSD
   Frank Weinhold                                : gennbo (NPA and NBO analysis)
   Christopher J. Cramer and Donald G. Truhlar   : smd solvation model
   Lars Goerigk                                  : TD-DFT with DH, B97 family of functionals
   V. Asgeirsson, H. Jonsson                     : NEB implementation
   FAccTs GmbH                                   : IRC, NEB, NEB-TS, DLPNO-Multilevel, CI-OPT
                                                   MM, QMMM, 2- and 3-layer-ONIOM, Crystal-QMMM,
                                                   LR-CPCM, SF, NACMEs, symmetry and pop. for TD-DFT,
                                                   nearIR, NL-DFT gradient (VV10), updates on ESD,
                                                   ML-optimized integration grids
   S Lehtola, MJT Oliveira, MAL Marques          : LibXC Library
   Liviu Ungur et al                             : ANISO software


 Your calculation uses the libint2 library for the computation of 2-el integrals
 For citations please refer to: http://libint.valeyev.net

 Your ORCA version has been built with support for libXC version: 5.1.0
 For citations please refer to: https://tddft.org/programs/libxc/

 This ORCA versions uses:
   CBLAS   interface :  Fast vector & matrix operations
   LAPACKE interface :  Fast linear algebra routines
   Shared memory     :  Shared parallel matrices


================================================================================

----- Orbital basis set information -----
Your calculation utilizes the basis: STO-3G
   H-Ne       : W. J. Hehre, R. F. Stewart and J. A. Pople, J. Chem. Phys. 2657 (1969).
   Na-Ar      : W. J. Hehre, R. Ditchfield, R. F. Stewart and J. A. Pople, J. Chem. Phys. 2769 (1970).
   K,Ca,Ga-Kr : W. J. Pietro, B. A. Levy, W. J. Hehre and R. F. Stewart, J. Am. Chem. Soc. 19, 2225 (1980).
   Sc-Zn,Y-Cd : W. J. Pietro and W. J. Hehre, J. Comp. Chem. 4, 241 (1983).

----- AuxJ basis set information -----
Your calculation utilizes the auxiliary basis: def2/J
   F. Weigend, Phys. Chem. Chem. Phys. 8, 1057 (2006).

================================================================================
                                        WARNINGS
                       Please study these warnings very carefully!
================================================================================


WARNING: Geometry Optimization
  ===> : Switching off AutoStart
         For restart on a previous wavefunction, please use MOREAD

INFO   : the flag for use of the SHARK integral package has been found!

================================================================================
                                       INPUT FILE
================================================================================
NAME = Ibuprofeno\Ibuprofeno_TPSS_STO-3G\Ibuprofeno_TPSS_STO-3G.orcainp
|  1> # ORCA input file
|  2> # 
|  3> !TPSS STO-3G Opt CPCM(WATER)
|  4> 
|  5> * xyz 0 1
|  6>    C        2.51158         1.94756         2.60573
|  7>    C        2.25536         0.96160         1.46447
|  8>    C        0.74524         0.81106         1.24936
|  9>    C        2.92580         1.40939         0.15172
| 10>    C        4.43034         1.55789         0.20717
| 11>    C        5.26167         0.46240         0.46590
| 12>    C        6.65476         0.59883         0.42551
| 13>    C        7.24791         1.83155         0.11193
| 14>    C        6.41047         2.93519        -0.11026
| 15>    C        5.02103         2.79876        -0.06128
| 16>    C        8.76102         1.93225        -0.05663
| 17>    C        9.09540         2.35216        -1.49427
| 18>    C        9.51272         2.83111         0.91923
| 19>    O        8.80891         3.32035         1.96468
| 20>    O       10.70739         3.08621         0.80213
| 21>    H        2.02343         1.60730         3.52519
| 22>    H        2.12250         2.94266         2.36454
| 23>    H        3.58050         2.04224         2.81968
| 24>    H        2.65201        -0.01745         1.76022
| 25>    H        0.28537         1.76747         0.97560
| 26>    H        0.25582         0.45223         2.16115
| 27>    H        0.53153         0.09307         0.45069
| 28>    H        2.47657         2.35652        -0.17573
| 29>    H        2.69614         0.68540        -0.64197
| 30>    H        4.83180        -0.51614         0.67097
| 31>    H        7.26813        -0.28320         0.60297
| 32>    H        6.82783         3.91067        -0.35575
| 33>    H        4.39927         3.66864        -0.26536
| 34>    H        9.18294         0.93039         0.10471
| 35>    H        8.71034         3.35199        -1.72490
| 36>    H        8.66417         1.65151        -2.21781
| 37>    H       10.17758         2.38088        -1.65965
| 38>    H        7.87163         3.04560         1.99566
| 39> *
| 40> 
| 41>                          ****END OF INPUT****
================================================================================

                       *****************************
                       * Geometry Optimization Run *
                       *****************************

Geometry optimization settings:
Update method            Update   .... BFGS
Choice of coordinates    CoordSys .... Z-matrix Internals
Initial Hessian          InHess   .... Almoef's Model

Convergence Tolerances:
Energy Change            TolE     ....  5.0000e-06 Eh
Max. Gradient            TolMAXG  ....  3.0000e-04 Eh/bohr
RMS Gradient             TolRMSG  ....  1.0000e-04 Eh/bohr
Max. Displacement        TolMAXD  ....  4.0000e-03 bohr
RMS Displacement         TolRMSD  ....  2.0000e-03 bohr
Strict Convergence                ....  False
------------------------------------------------------------------------------
                        ORCA OPTIMIZATION COORDINATE SETUP
------------------------------------------------------------------------------

The optimization will be done in new redundant internal coordinates
Making redundant internal coordinates   ...  (new redundants) done
Evaluating the initial hessian          ...  (Almloef) done
Evaluating the coordinates              ...  done
Calculating the B-matrix                .... done
Calculating the G-matrix                .... done
Diagonalizing the G-matrix              .... done
Small eigenvalue found = 1.041e-02
Small eigenvalue found = 2.009e-02
Small eigenvalue found = 2.511e-02
Small eigenvalue found = 2.950e-02
The first mode is                       ....   79
The number of degrees of freedom        ....   93

    -----------------------------------------------------------------
                    Redundant Internal Coordinates


    -----------------------------------------------------------------
         Definition                    Initial Value    Approx d2E/dq
    -----------------------------------------------------------------
      1. B(C   1,C   0)                  1.5298         0.373871   
      2. B(C   2,C   1)                  1.5328         0.369787   
      3. B(C   3,C   1)                  1.5406         0.359363   
      4. B(C   4,C   3)                  1.5129         0.397843   
      5. B(C   5,C   4)                  1.3993         0.603725   
      6. B(C   6,C   5)                  1.4003         0.601515   
      7. B(C   7,C   6)                  1.4035         0.594608   
      8. B(C   8,C   7)                  1.4031         0.595436   
      9. B(C   9,C   8)                  1.3970         0.608977   
     10. B(C   9,C   4)                  1.4003         0.601677   
     11. B(C  10,C   7)                  1.5258         0.379388   
     12. B(C  11,C  10)                  1.5346         0.367339   
     13. B(C  12,C  10)                  1.5249         0.380647   
     14. B(O  13,C  12)                  1.3519         0.643636   
     15. B(O  14,C  12)                  1.2272         1.017675   
     16. B(H  15,C   0)                  1.0952         0.353280   
     17. B(H  16,C   0)                  1.0953         0.353099   
     18. B(H  17,C   0)                  1.0942         0.354554   
     19. B(H  18,C   1)                  1.0970         0.351000   
     20. B(H  19,C   2)                  1.0960         0.352291   
     21. B(H  20,C   2)                  1.0953         0.353174   
     22. B(H  21,C   2)                  1.0950         0.353528   
     23. B(H  22,C   3)                  1.0982         0.349389   
     24. B(H  23,C   3)                  1.0986         0.348944   
     25. B(H  24,C   5)                  1.0883         0.362365   
     26. B(H  25,C   6)                  1.0889         0.361565   
     27. B(H  26,C   8)                  1.0890         0.361367   
     28. B(H  27,C   9)                  1.0885         0.362033   
     29. B(H  28,C  10)                  1.0990         0.348407   
     30. B(H  29,C  11)                  1.0960         0.352305   
     31. B(H  30,C  11)                  1.0956         0.352744   
     32. B(H  31,C  11)                  1.0951         0.353390   
     33. B(H  32,H  17)                  4.4833         0.000000   
     34. B(H  32,O  13)                  0.9772         0.488099   
     35. A(C   1,C   0,H  15)          110.5745         0.323345   
     36. A(H  15,C   0,H  17)          107.3459         0.289263   
     37. A(C   1,C   0,H  17)          111.4230         0.323536   
     38. A(H  16,C   0,H  17)          108.1463         0.289240   
     39. A(C   1,C   0,H  16)          111.2083         0.323317   
     40. A(H  15,C   0,H  16)          107.9861         0.289077   
     41. A(C   0,C   1,C   3)          112.0541         0.361002   
     42. A(C   2,C   1,H  18)          107.8438         0.322420   
     43. A(C   2,C   1,C   3)          109.7381         0.360327   
     44. A(C   3,C   1,H  18)          109.3781         0.320915   
     45. A(C   0,C   1,H  18)          108.2723         0.323001   
     46. A(C   0,C   1,C   2)          109.4516         0.362768   
     47. A(C   1,C   2,H  19)          111.2690         0.322615   
     48. A(H  20,C   2,H  21)          107.7675         0.289118   
     49. A(C   1,C   2,H  20)          110.8293         0.322747   
     50. A(H  19,C   2,H  21)          107.9457         0.289005   
     51. A(C   1,C   2,H  21)          111.0412         0.322800   
     52. A(H  19,C   2,H  20)          107.8388         0.288960   
     53. A(C   1,C   3,H  23)          109.4573         0.320606   
     54. A(C   4,C   3,H  22)          109.4556         0.326069   
     55. A(H  22,C   3,H  23)          105.5115         0.288042   
     56. A(C   1,C   3,C   4)          115.4737         0.364855   
     57. A(C   1,C   3,H  22)          109.0707         0.320673   
     58. A(C   4,C   3,H  23)          107.4019         0.326001   
     59. A(C   5,C   4,C   9)          118.5930         0.429674   
     60. A(C   3,C   4,C   5)          121.3826         0.399225   
     61. A(C   3,C   4,C   9)          119.9655         0.398986   
     62. A(C   4,C   5,C   6)          120.6244         0.429653   
     63. A(C   6,C   5,H  24)          119.0771         0.351479   
     64. A(C   4,C   5,H  24)          120.2710         0.351697   
     65. A(C   5,C   6,C   7)          120.8277         0.428482   
     66. A(C   7,C   6,H  25)          120.6516         0.350663   
     67. A(C   5,C   6,H  25)          118.4742         0.351348   
     68. A(C   8,C   7,C  10)          121.4987         0.394949   
     69. A(C   6,C   7,C  10)          120.1169         0.394853   
     70. A(C   6,C   7,C   8)          118.2947         0.427702   
     71. A(C   9,C   8,H  26)          118.4601         0.352049   
     72. A(C   7,C   8,C   9)          120.7477         0.429538   
     73. A(C   7,C   8,H  26)          120.7646         0.350713   
     74. A(C   4,C   9,C   8)          120.8525         0.430342   
     75. A(C   4,C   9,H  27)          120.2087         0.351441   
     76. A(C   8,C   9,H  27)          118.9133         0.352158   
     77. A(C   7,C  10,C  11)          109.7331         0.363265   
     78. A(C  12,C  10,H  28)          104.7238         0.323561   
     79. A(C  11,C  10,H  28)          107.6576         0.321679   
     80. A(C   7,C  10,H  28)          107.7185         0.323385   
     81. A(C  11,C  10,C  12)          109.3185         0.363471   
     82. A(C   7,C  10,C  12)          117.1975         0.365483   
     83. A(H  30,C  11,H  31)          107.8175         0.289045   
     84. A(H  29,C  11,H  31)          106.9472         0.288989   
     85. A(C  10,C  11,H  31)          111.3444         0.322428   
     86. A(H  29,C  11,H  30)          107.8274         0.288906   
     87. A(C  10,C  11,H  30)          110.9728         0.322331   
     88. A(C  10,C  11,H  29)          111.7290         0.322266   
     89. A(O  13,C  12,O  14)          120.3556         0.471926   
     90. A(C  10,C  12,O  14)          122.7757         0.431824   
     91. A(C  10,C  12,O  13)          116.8443         0.398056   
     92. A(C  12,O  13,H  32)          114.9672         0.368478   
     93. D(H  18,C   1,C   0,H  16)   -179.3553         0.011160   
     94. D(H  18,C   1,C   0,H  17)     59.9066         0.011160   
     95. D(C   2,C   1,C   0,H  16)    -62.0432         0.011160   
     96. D(C   3,C   1,C   0,H  15)    179.8926         0.011160   
     97. D(C   2,C   1,C   0,H  17)    177.2187         0.011160   
     98. D(C   2,C   1,C   0,H  15)     57.9199         0.011160   
     99. D(C   3,C   1,C   0,H  16)     59.9296         0.011160   
    100. D(C   3,C   1,C   0,H  17)    -60.8085         0.011160   
    101. D(H  18,C   1,C   0,H  15)    -59.3922         0.011160   
    102. D(H  19,C   2,C   1,C   3)    -62.3976         0.010932   
    103. D(H  19,C   2,C   1,H  18)    178.5356         0.010932   
    104. D(H  21,C   2,C   1,C   0)   -178.7802         0.010932   
    105. D(H  20,C   2,C   1,C   3)    177.6148         0.010932   
    106. D(H  20,C   2,C   1,H  18)     58.5480         0.010932   
    107. D(H  21,C   2,C   1,H  18)    -61.1992         0.010932   
    108. D(H  21,C   2,C   1,C   3)     57.8676         0.010932   
    109. D(H  19,C   2,C   1,C   0)     60.9546         0.010932   
    110. D(H  20,C   2,C   1,C   0)    -59.0330         0.010932   
    111. D(H  23,C   3,C   1,C   2)    -56.9063         0.010363   
    112. D(H  23,C   3,C   1,C   0)   -178.7151         0.010363   
    113. D(H  22,C   3,C   1,H  18)    176.1882         0.010363   
    114. D(H  22,C   3,C   1,C   2)     58.0694         0.010363   
    115. D(H  22,C   3,C   1,C   0)    -63.7394         0.010363   
    116. D(C   4,C   3,C   1,H  18)    -60.0963         0.010363   
    117. D(C   4,C   3,C   1,C   2)   -178.2151         0.010363   
    118. D(H  23,C   3,C   1,H  18)     61.2125         0.010363   
    119. D(C   4,C   3,C   1,C   0)     59.9760         0.010363   
    120. D(C   9,C   4,C   3,C   1)   -119.8860         0.011752   
    121. D(C   5,C   4,C   3,H  23)    -59.4644         0.011752   
    122. D(C   5,C   4,C   3,H  22)   -173.5402         0.011752   
    123. D(C   5,C   4,C   3,C   1)     62.9466         0.011752   
    124. D(C   9,C   4,C   3,H  23)    117.7030         0.011752   
    125. D(C   9,C   4,C   3,H  22)      3.6271         0.011752   
    126. D(H  24,C   5,C   4,C   9)   -179.5715         0.025144   
    127. D(H  24,C   5,C   4,C   3)     -2.3663         0.025144   
    128. D(C   6,C   5,C   4,C   9)     -1.4945         0.025144   
    129. D(C   6,C   5,C   4,C   3)    175.7107         0.025144   
    130. D(H  25,C   6,C   5,H  24)     -0.0864         0.024950   
    131. D(H  25,C   6,C   5,C   4)   -178.1861         0.024950   
    132. D(C   7,C   6,C   5,C   4)     -0.6516         0.024950   
    133. D(C   7,C   6,C   5,H  24)    177.4481         0.024950   
    134. D(C  10,C   7,C   6,H  25)      3.2432         0.024350   
    135. D(C  10,C   7,C   6,C   5)   -174.2375         0.024350   
    136. D(C   8,C   7,C   6,H  25)    179.8508         0.024350   
    137. D(C   8,C   7,C   6,C   5)      2.3701         0.024350   
    138. D(H  26,C   8,C   7,C  10)     -3.4671         0.024422   
    139. D(H  26,C   8,C   7,C   6)    179.9745         0.024422   
    140. D(C   9,C   8,C   7,C  10)    174.5909         0.024422   
    141. D(C   9,C   8,C   7,C   6)     -1.9675         0.024422   
    142. D(H  27,C   9,C   8,H  26)     -0.2276         0.025608   
    143. D(H  27,C   9,C   8,C   7)   -178.3295         0.025608   
    144. D(C   4,C   9,C   8,H  26)    177.9412         0.025608   
    145. D(C   4,C   9,C   8,C   7)     -0.1607         0.025608   
    146. D(H  27,C   9,C   4,C   5)   -179.9554         0.024964   
    147. D(H  27,C   9,C   4,C   3)      2.7986         0.024964   
    148. D(C   8,C   9,C   4,C   5)      1.8995         0.024964   
    149. D(C   8,C   9,C   4,C   3)   -175.3465         0.024964   
    150. D(H  28,C  10,C   7,C   6)      0.2821         0.010743   
    151. D(C  12,C  10,C   7,C   8)     66.1294         0.010743   
    152. D(C  12,C  10,C   7,C   6)   -117.3740         0.010743   
    153. D(C  11,C  10,C   7,C   8)    -59.2843         0.010743   
    154. D(H  28,C  10,C   7,C   8)   -176.2145         0.010743   
    155. D(C  11,C  10,C   7,C   6)    117.2123         0.010743   
    156. D(H  31,C  11,C  10,H  28)    -60.0043         0.010797   
    157. D(H  31,C  11,C  10,C   7)   -176.9727         0.010797   
    158. D(H  30,C  11,C  10,H  28)     60.1030         0.010797   
    159. D(H  30,C  11,C  10,C  12)    173.3210         0.010797   
    160. D(H  30,C  11,C  10,C   7)    -56.8655         0.010797   
    161. D(H  29,C  11,C  10,H  28)   -179.5180         0.010797   
    162. D(H  31,C  11,C  10,C  12)     53.2137         0.010797   
    163. D(H  29,C  11,C  10,C  12)    -66.3000         0.010797   
    164. D(H  29,C  11,C  10,C   7)     63.5136         0.010797   
    165. D(O  14,C  12,C  10,H  28)     67.7569         0.010810   
    166. D(O  14,C  12,C  10,C  11)    -47.3597         0.010810   
    167. D(O  14,C  12,C  10,C   7)   -172.9793         0.010810   
    168. D(O  13,C  12,C  10,H  28)   -110.4481         0.010810   
    169. D(O  13,C  12,C  10,C  11)    134.4353         0.010810   
    170. D(O  13,C  12,C  10,C   7)      8.8157         0.010810   
    171. D(H  32,O  13,C  12,O  14)   -178.1693         0.030568   
    172. D(H  32,O  13,C  12,C  10)      0.0817         0.030568   
    -----------------------------------------------------------------

Number of atoms                         .... 33
Number of degrees of freedom            .... 172

         *************************************************************
         *                GEOMETRY OPTIMIZATION CYCLE   1            *
         *************************************************************
---------------------------------
CARTESIAN COORDINATES (ANGSTROEM)
---------------------------------
  C      2.511580    1.947560    2.605730
  C      2.255360    0.961600    1.464470
  C      0.745240    0.811060    1.249360
  C      2.925800    1.409390    0.151720
  C      4.430340    1.557890    0.207170
  C      5.261670    0.462400    0.465900
  C      6.654760    0.598830    0.425510
  C      7.247910    1.831550    0.111930
  C      6.410470    2.935190   -0.110260
  C      5.021030    2.798760   -0.061280
  C      8.761020    1.932250   -0.056630
  C      9.095400    2.352160   -1.494270
  C      9.512720    2.831110    0.919230
  O      8.808910    3.320350    1.964680
  O     10.707390    3.086210    0.802130
  H      2.023430    1.607300    3.525190
  H      2.122500    2.942660    2.364540
  H      3.580500    2.042240    2.819680
  H      2.652010   -0.017450    1.760220
  H      0.285370    1.767470    0.975600
  H      0.255820    0.452230    2.161150
  H      0.531530    0.093070    0.450690
  H      2.476570    2.356520   -0.175730
  H      2.696140    0.685400   -0.641970
  H      4.831800   -0.516140    0.670970
  H      7.268130   -0.283200    0.602970
  H      6.827830    3.910670   -0.355750
  H      4.399270    3.668640   -0.265360
  H      9.182940    0.930390    0.104710
  H      8.710340    3.351990   -1.724900
  H      8.664170    1.651510   -2.217810
  H     10.177580    2.380880   -1.659650
  H      7.871630    3.045600    1.995660

----------------------------
CARTESIAN COORDINATES (A.U.)
----------------------------
  NO LB      ZA    FRAG     MASS         X           Y           Z
   0 C     6.0000    0    12.011    4.746198    3.680355    4.924116
   1 C     6.0000    0    12.011    4.262013    1.817161    2.767447
   2 C     6.0000    0    12.011    1.408300    1.532681    2.360948
   3 C     6.0000    0    12.011    5.528961    2.663361    0.286709
   4 C     6.0000    0    12.011    8.372129    2.943985    0.391495
   5 C     6.0000    0    12.011    9.943115    0.873809    0.880423
   6 C     6.0000    0    12.011   12.575674    1.131625    0.804097
   7 C     6.0000    0    12.011   13.696565    3.461128    0.211517
   8 C     6.0000    0    12.011   12.114033    5.546705   -0.208361
   9 C     6.0000    0    12.011    9.488372    5.288890   -0.115802
  10 C     6.0000    0    12.011   16.555928    3.651423   -0.107015
  11 C     6.0000    0    12.011   17.187815    4.444938   -2.823761
  12 C     6.0000    0    12.011   17.976436    5.350023    1.737093
  13 O     8.0000    0    15.999   16.646427    6.274552    3.712707
  14 O     8.0000    0    15.999   20.234035    5.832092    1.515806
  15 H     1.0000    0     1.008    3.823729    3.037357    6.661644
  16 H     1.0000    0     1.008    4.010944    5.560822    4.468333
  17 H     1.0000    0     1.008    6.766164    3.859274    5.328423
  18 H     1.0000    0     1.008    5.011573   -0.032976    3.326334
  19 H     1.0000    0     1.008    0.539271    3.340034    1.843617
  20 H     1.0000    0     1.008    0.483430    0.854591    4.083982
  21 H     1.0000    0     1.008    1.004446    0.175877    0.851681
  22 H     1.0000    0     1.008    4.680039    4.453177   -0.332082
  23 H     1.0000    0     1.008    5.094966    1.295218   -1.213147
  24 H     1.0000    0     1.008    9.130779   -0.975363    1.267950
  25 H     1.0000    0     1.008   13.734775   -0.535170    1.139448
  26 H     1.0000    0     1.008   12.902729    7.390095   -0.672270
  27 H     1.0000    0     1.008    8.313415    6.932725   -0.501458
  28 H     1.0000    0     1.008   17.353242    1.758182    0.197873
  29 H     1.0000    0     1.008   16.460157    6.334343   -3.259589
  30 H     1.0000    0     1.008   16.372908    3.120902   -4.191054
  31 H     1.0000    0     1.008   19.232839    4.499211   -3.136284
  32 H     1.0000    0     1.008   14.875225    5.755350    3.771251

--------------------------------
INTERNAL COORDINATES (ANGSTROEM)
--------------------------------
 C      0   0   0     0.000000000000     0.00000000     0.00000000
 C      1   0   0     1.529784363105     0.00000000     0.00000000
 C      2   1   0     1.532774288048   109.45155292     0.00000000
 C      2   1   3     1.540557769186   112.05409380   121.97278112
 C      4   2   1     1.512867331956   115.47368775    59.97600590
 C      5   4   2     1.399338815977   121.38258999    62.94664103
 C      6   5   4     1.400337189787   120.62444578   175.71073882
 C      7   6   5     1.403480650846   120.82767675   359.34838898
 C      8   7   6     1.403102063037   118.29467306     2.37012831
 C      9   8   7     1.396980922883   120.74765653   358.03252115
 C      8   7   6     1.525796459460   120.11685965   185.76251159
 C     11   8   7     1.534582406422   109.73306593   117.21234083
 C     11   8   7     1.524895055143   117.19747112   242.62596795
 O     13  11   8     1.351913457363   116.84426399     8.81571116
 O     13  11   8     1.227202032634   122.77565075   187.02072780
 H      1   2   3     1.095204995286   110.57447283    57.91986164
 H      1   2   3     1.095344636404   111.20826055   297.95677089
 H      1   2   3     1.094225237920   111.42295091   177.21868826
 H      2   1   3     1.096967724001   108.27225906   242.68790997
 H      3   2   1     1.095967628445   111.26904134    60.95457473
 H      3   2   1     1.095286222592   110.82932053   300.96696078
 H      3   2   1     1.095013868908   111.04124569   181.21975567
 H      4   2   1     1.098219619339   109.07072886   296.26056240
 H      4   2   1     1.098566817176   109.45731037   181.28487399
 H      6   5   4     1.088293367342   120.27098570   357.63372840
 H      7   6   5     1.088894728337   118.47415808   181.81392093
 H      9   8   7     1.089043589623   120.76458583   179.97452902
 H     10   9   8     1.088542768292   118.91334008   181.67054259
 H     11   8   7     1.098986142588   107.71854761     0.28213819
 H     12  11   8     1.095956855629   111.72903192    63.51357930
 H     12  11   8     1.095618486062   110.97282073   303.13453114
 H     12  11   8     1.095120511725   111.34440291   183.02729944
 H     14  13  11     0.977210888857   114.96715224     0.08168677

---------------------------
INTERNAL COORDINATES (A.U.)
---------------------------
 C      0   0   0     0.000000000000     0.00000000     0.00000000
 C      1   0   0     2.890873490223     0.00000000     0.00000000
 C      2   1   0     2.896523629526   109.45155292     0.00000000
 C      2   1   3     2.911232277247   112.05409380   121.97278112
 C      4   2   1     2.858904934353   115.47368775    59.97600590
 C      5   4   2     2.644367130762   121.38258999    62.94664103
 C      6   5   4     2.646253783842   120.62444578   175.71073882
 C      7   6   5     2.652194064357   120.82767675   359.34838898
 C      8   7   6     2.651478637081   118.29467306     2.37012831
 C      9   8   7     2.639911358562   120.74765653   358.03252115
 C      8   7   6     2.883337444486   120.11685965   185.76251159
 C     11   8   7     2.899940478071   109.73306593   117.21234083
 C     11   8   7     2.881634037191   117.19747112   242.62596795
 O     13  11   8     2.554746191179   116.84426399     8.81571116
 O     13  11   8     2.319075752669   122.77565075   187.02072780
 H      1   2   3     2.069637501594   110.57447283    57.91986164
 H      1   2   3     2.069901385064   111.20826055   297.95677089
 H      1   2   3     2.067786028493   111.42295091   177.21868826
 H      2   1   3     2.072968576113   108.27225906   242.68790997
 H      3   2   1     2.071078669405   111.26904134    60.95457473
 H      3   2   1     2.069790998956   110.82932053   300.96696078
 H      3   2   1     2.069276325081   111.04124569   181.21975567
 H      4   2   1     2.075334315449   109.07072886   296.26056240
 H      4   2   1     2.075990424276   109.45731037   181.28487399
 H      6   5   4     2.056576417639   120.27098570   357.63372840
 H      7   6   5     2.057712825227   118.47415808   181.81392093
 H      9   8   7     2.057994132291   120.76458583   179.97452902
 H     10   9   8     2.057047717132   118.91334008   181.67054259
 H     11   8   7     2.076782834465   107.71854761     0.28213819
 H     12  11   8     2.071058311732   111.72903192    63.51357930
 H     12  11   8     2.070418885918   110.97282073   303.13453114
 H     12  11   8     2.069477850799   111.34440291   183.02729944
 H     14  13  11     1.846660955025   114.96715224     0.08168677

---------------------
BASIS SET INFORMATION
---------------------
There are 3 groups of distinct atoms

 Group   1 Type C   : 6s3p contracted to 2s1p pattern {33/3}
 Group   2 Type O   : 6s3p contracted to 2s1p pattern {33/3}
 Group   3 Type H   : 3s contracted to 1s pattern {3}

Atom   0C    basis set group =>   1
Atom   1C    basis set group =>   1
Atom   2C    basis set group =>   1
Atom   3C    basis set group =>   1
Atom   4C    basis set group =>   1
Atom   5C    basis set group =>   1
Atom   6C    basis set group =>   1
Atom   7C    basis set group =>   1
Atom   8C    basis set group =>   1
Atom   9C    basis set group =>   1
Atom  10C    basis set group =>   1
Atom  11C    basis set group =>   1
Atom  12C    basis set group =>   1
Atom  13O    basis set group =>   2
Atom  14O    basis set group =>   2
Atom  15H    basis set group =>   3
Atom  16H    basis set group =>   3
Atom  17H    basis set group =>   3
Atom  18H    basis set group =>   3
Atom  19H    basis set group =>   3
Atom  20H    basis set group =>   3
Atom  21H    basis set group =>   3
Atom  22H    basis set group =>   3
Atom  23H    basis set group =>   3
Atom  24H    basis set group =>   3
Atom  25H    basis set group =>   3
Atom  26H    basis set group =>   3
Atom  27H    basis set group =>   3
Atom  28H    basis set group =>   3
Atom  29H    basis set group =>   3
Atom  30H    basis set group =>   3
Atom  31H    basis set group =>   3
Atom  32H    basis set group =>   3
---------------------------------
AUXILIARY/J BASIS SET INFORMATION
---------------------------------
There are 3 groups of distinct atoms

 Group   1 Type C   : 12s5p4d2f1g contracted to 6s4p3d1f1g pattern {711111/2111/211/2/1}
 Group   2 Type O   : 12s5p4d2f1g contracted to 6s4p3d1f1g pattern {711111/2111/211/2/1}
 Group   3 Type H   : 5s2p1d contracted to 3s1p1d pattern {311/2/1}

Atom   0C    basis set group =>   1
Atom   1C    basis set group =>   1
Atom   2C    basis set group =>   1
Atom   3C    basis set group =>   1
Atom   4C    basis set group =>   1
Atom   5C    basis set group =>   1
Atom   6C    basis set group =>   1
Atom   7C    basis set group =>   1
Atom   8C    basis set group =>   1
Atom   9C    basis set group =>   1
Atom  10C    basis set group =>   1
Atom  11C    basis set group =>   1
Atom  12C    basis set group =>   1
Atom  13O    basis set group =>   2
Atom  14O    basis set group =>   2
Atom  15H    basis set group =>   3
Atom  16H    basis set group =>   3
Atom  17H    basis set group =>   3
Atom  18H    basis set group =>   3
Atom  19H    basis set group =>   3
Atom  20H    basis set group =>   3
Atom  21H    basis set group =>   3
Atom  22H    basis set group =>   3
Atom  23H    basis set group =>   3
Atom  24H    basis set group =>   3
Atom  25H    basis set group =>   3
Atom  26H    basis set group =>   3
Atom  27H    basis set group =>   3
Atom  28H    basis set group =>   3
Atom  29H    basis set group =>   3
Atom  30H    basis set group =>   3
Atom  31H    basis set group =>   3
Atom  32H    basis set group =>   3
------------------------------------------------------------------------------
                           ORCA GTO INTEGRAL CALCULATION
                           -- RI-GTO INTEGRALS CHOSEN --
------------------------------------------------------------------------------
------------------------------------------------------------------------------
                   ___                                                        
                  /   \      - P O W E R E D   B Y -                         
                 /     \                                                     
                 |  |  |   _    _      __       _____    __    __             
                 |  |  |  | |  | |    /  \     |  _  \  |  |  /  |          
                  \  \/   | |  | |   /    \    | | | |  |  | /  /          
                 / \  \   | |__| |  /  /\  \   | |_| |  |  |/  /          
                |  |  |   |  __  | /  /__\  \  |    /   |      \           
                |  |  |   | |  | | |   __   |  |    \   |  |\   \          
                \     /   | |  | | |  |  |  |  | |\  \  |  | \   \       
                 \___/    |_|  |_| |__|  |__|  |_| \__\ |__|  \__/        
                                                                              
                      - O R C A' S   B I G   F R I E N D -                    
                                      &                                       
                       - I N T E G R A L  F E E D E R -                       
                                                                              
 v1 FN, 2020, v2 2021                                                         
------------------------------------------------------------------------------


Reading SHARK input file Ibuprofeno\Ibuprofeno_TPSS_STO-3G\Ibuprofeno_TPSS_STO-3G.orcainp.SHARKINP.tmp ... ok
----------------------
SHARK INTEGRAL PACKAGE
----------------------

Number of atoms                             ...     33
Number of basis functions                   ...     93
Number of shells                            ...     63
Maximum angular momentum                    ...      1
Integral batch strategy                     ... SHARK/LIBINT Hybrid
RI-J (if used) integral strategy            ... SPLIT-RIJ (Revised 2003 algorithm where possible)
Printlevel                                  ...      1
Contraction scheme used                     ... SEGMENTED contraction
Coulomb Range Separation                    ... NOT USED
Exchange Range Separation                   ... NOT USED
Finite Nucleus Model                        ... NOT USED
Auxiliary Coulomb fitting basis             ... AVAILABLE
   # of basis functions in Aux-J            ...    933
   # of shells in Aux-J                     ...    315
   Maximum angular momentum in Aux-J        ...      4
Auxiliary J/K fitting basis                 ... NOT available
Auxiliary Correlation fitting basis         ... NOT available
Auxiliary 'external' fitting basis          ... NOT available
Integral threshold                          ...     2.500000e-11
Primitive cut-off                           ...     2.500000e-12
Primitive pair pre-selection threshold      ...     2.500000e-12

Calculating pre-screening integrals         ... done (  0.0 sec) Dimension = 63
Organizing shell pair data                  ... done (  0.0 sec)
Shell pair information
Total number of shell pairs                 ...      2016
Shell pairs after pre-screening             ...      1672
Total number of primitive shell pairs       ...     18144
Primitive shell pairs kept                  ...      9894
          la=0 lb=0:    926 shell pairs
          la=1 lb=0:    633 shell pairs
          la=1 lb=1:    113 shell pairs

Calculating one electron integrals          ... done (  0.0 sec)
Calculating RI/J V-Matrix + Cholesky decomp.... done (  0.0 sec)
Calculating Nuclear repulsion               ... done (  0.0 sec) ENN=    964.722981796854 Eh

SHARK setup successfully completed in   0.1 seconds

Maximum memory used throughout the entire GTOINT-calculation: 19.0 MB
-------------------------------------------------------------------------------
                                 ORCA SCF
-------------------------------------------------------------------------------

------------
SCF SETTINGS
------------
Hamiltonian:
 Density Functional     Method          .... DFT(GTOs)
 Exchange Functional    Exchange        .... TPSS
 Correlation Functional Correlation     .... TPSS
 LDA part of GGA corr.  LDAOpt          .... PW91-LDA
 Gradients option       PostSCFGGA      .... off
   Density functional embedding theory  .... OFF
   NL short-range parameter             ....  5.000000
 RI-approximation to the Coulomb term is turned on
   Number of AuxJ basis functions       .... 933


General Settings:
 Integral files         IntName         .... Ibuprofeno\Ibuprofeno_TPSS_STO-3G\Ibuprofeno_TPSS_STO-3G.orcainp
 Hartree-Fock type      HFTyp           .... RHF
 Total Charge           Charge          ....    0
 Multiplicity           Mult            ....    1
 Number of Electrons    NEL             ....  112
 Basis Dimension        Dim             ....   93
 Nuclear Repulsion      ENuc            ....    964.7229817969 Eh

Convergence Acceleration:
 DIIS                   CNVDIIS         .... on
   Start iteration      DIISMaxIt       ....    12
   Startup error        DIISStart       ....  0.200000
   # of expansion vecs  DIISMaxEq       ....     5
   Bias factor          DIISBfac        ....   1.050
   Max. coefficient     DIISMaxC        ....  10.000
 Trust-Rad. Augm. Hess. CNVTRAH         .... auto
   Auto Start mean grad. ratio tolernc. ....  1.125000
   Auto Start start iteration           ....    20
   Auto Start num. interpolation iter.  ....    10
   Max. Number of Micro iterations      ....    16
   Max. Number of Macro iterations      .... Maxiter - #DIIS iter
   Number of Davidson start vectors     ....     2
   Converg. threshold I  (grad. norm)   ....   1.000e-05
   Converg. threshold II (energy diff.) ....   1.000e-08
   Grad. Scal. Fac. for Micro threshold ....   0.100
   Minimum threshold for Micro iter.    ....   0.010
   NR start threshold (gradient norm)   ....   0.001
   Initial trust radius                 ....   0.400
   Minimum AH scaling param. (alpha)    ....   1.000
   Maximum AH scaling param. (alpha)    .... 1000.000
   Orbital update algorithm             .... Taylor
   White noise on init. David. guess    .... on
   Maximum white noise                  ....   0.010
   Quad. conv. algorithm                .... NR
 SOSCF                  CNVSOSCF        .... on
   Start iteration      SOSCFMaxIt      ....   150
   Startup grad/error   SOSCFStart      ....  0.003300
 Level Shifting         CNVShift        .... on
   Level shift para.    LevelShift      ....    0.2500
   Turn off err/grad.   ShiftErr        ....    0.0010
 Zerner damping         CNVZerner       .... off
 Static damping         CNVDamp         .... on
   Fraction old density DampFac         ....    0.7000
   Max. Damping (<1)    DampMax         ....    0.9800
   Min. Damping (>=0)   DampMin         ....    0.0000
   Turn off err/grad.   DampErr         ....    0.1000
 Fernandez-Rico         CNVRico         .... off

SCF Procedure:
 Maximum # iterations   MaxIter         ....   125
 SCF integral mode      SCFMode         .... Direct
   Integral package                     .... SHARK and LIBINT hybrid scheme
 Reset frequency        DirectResetFreq ....    20
 Integral Threshold     Thresh          ....  2.500e-11 Eh
 Primitive CutOff       TCut            ....  2.500e-12 Eh

Convergence Tolerance:
 Convergence Check Mode ConvCheckMode   .... Total+1el-Energy
 Convergence forced     ConvForced      .... 0
 Energy Change          TolE            ....  1.000e-08 Eh
 1-El. energy change                    ....  1.000e-05 Eh
 Orbital Gradient       TolG            ....  1.000e-05
 Orbital Rotation angle TolX            ....  1.000e-05
 DIIS Error             TolErr          ....  5.000e-07


Diagonalization of the overlap matrix:
Smallest eigenvalue                        ... 1.741e-01
Time for diagonalization                   ...    0.001 sec
Threshold for overlap eigenvalues          ... 1.000e-08
Number of eigenvalues below threshold      ... 0
Time for construction of square roots      ...    0.000 sec
Total time needed                          ...    0.001 sec

Time for model grid setup =    0.186 sec

------------------------------
INITIAL GUESS: MODEL POTENTIAL
------------------------------
Loading Hartree-Fock densities                     ... done
Calculating cut-offs                               ... done
Initializing the effective Hamiltonian             ... done
Setting up the integral package (SHARK)            ... done
Starting the Coulomb interaction                   ... done (   0.1 sec)
Reading the grid                                   ... done
Mapping shells                                     ... done
Starting the XC term evaluation                    ... done (   0.1 sec)
  promolecular density results
     # of electrons  =    111.998830226
     EX              =    -88.092536565
     EC              =     -3.712942288
     EX+EC           =    -91.805478853
Transforming the Hamiltonian                       ... done (   0.0 sec)
Diagonalizing the Hamiltonian                      ... done (   0.0 sec)
Back transforming the eigenvectors                 ... done (   0.0 sec)
Now organizing SCF variables                       ... done
                      ------------------
                      INITIAL GUESS DONE (   0.3 sec)
                      ------------------
-------------------
DFT GRID GENERATION
-------------------

General Integration Accuracy     IntAcc      ... 4.388
Radial Grid Type                 RadialGrid  ... OptM3 with GC (2021)
Angular Grid (max. ang.)         AngularGrid ... 4 (Lebedev-302)
Angular grid pruning method      GridPruning ... 4 (adaptive)
Weight generation scheme         WeightScheme... Becke
Basis function cutoff            BFCut       ... 1.0000e-11
Integration weight cutoff        WCut        ... 1.0000e-14
Angular grids for H and He will be reduced by one unit
Partially contracted basis set               ... off
Rotationally invariant grid construction     ... off

Total number of grid points                  ...   147044
Total number of batches                      ...     2315
Average number of points per batch           ...       63
Average number of grid points per atom       ...     4456
Time for grid setup =    0.745 sec


--------------------
CPCM SOLVATION MODEL
--------------------
CPCM parameters:
  Epsilon                                         ...      80.4000
  Refrac                                          ...       1.3300
  Rsolv                                           ...       1.3000
  Surface type                                    ... GAUSSIAN VDW
  Epsilon function type                           ...         CPCM
Radii:
 Radius for C  used is    3.8550 Bohr (=   2.0400 Ang.)
 Radius for O  used is    3.4469 Bohr (=   1.8240 Ang.)
 Radius for H  used is    2.4944 Bohr (=   1.3200 Ang.)
Calculating surface                               ...        done! (  0.0s)
GEPOL surface points                              ...         1794
GEPOL Volume                                      ...    1837.4322
GEPOL Surface-area                                ...     981.7946
Calculating surface distance matrix               ...        done! (  0.0s)
Performing Cholesky decomposition & store         ...        done! (  0.0s)
Overall time for CPCM initialization              ...                 0.1s
--------------
SCF ITERATIONS
--------------
ITER       Energy         Delta-E        Max-DP      RMS-DP      [F,P]     Damp
               ***  Starting incremental Fock matrix formation  ***
  0   -648.5322533822   0.000000000000 0.12515758  0.00485469  0.1893281 0.7000
  1   -648.6222920011  -0.090038618909 0.07897349  0.00329595  0.0768810 0.7000
                               ***Turning on DIIS***
  2   -648.6558445779  -0.033552576767 0.10314144  0.00512547  0.0472858 0.0000
  3   -648.7094507258  -0.053606147966 0.07324496  0.00250519  0.0514952 0.0000
  4   -648.7210656071  -0.011614881208 0.02256798  0.00084176  0.0204072 0.0000
                      *** Initiating the SOSCF procedure ***
                           *** Shutting down DIIS ***
                      *** Re-Reading the Fockian *** 
                      *** Removing any level shift *** 
ITER      Energy       Delta-E        Grad      Rot      Max-DP    RMS-DP
  5   -648.72281374  -0.0017481361  0.000844  0.000844  0.003560  0.000155
               *** Restarting incremental Fock matrix formation ***
  6   -648.72284763  -0.0000338838  0.000981  0.004245  0.005451  0.000152
  7   -648.72282438   0.0000232488  0.002796  0.003192  0.004456  0.000110
  8   -648.72285170  -0.0000273205  0.000131  0.000356  0.000936  0.000031
  9   -648.72285111   0.0000005908  0.000216  0.000214  0.000580  0.000020
 10   -648.72285201  -0.0000009022  0.000018  0.000076  0.000133  0.000005
 11   -648.72285200   0.0000000088  0.000031  0.000053  0.000088  0.000003
 12   -648.72285202  -0.0000000154  0.000003  0.000008  0.000019  0.000001
 13   -648.72285202  -0.0000000012  0.000003  0.000003  0.000010  0.000001
                 **** Energy Check signals convergence ****
              ***Rediagonalizing the Fockian in SOSCF/NRSCF***

               *****************************************************
               *                     SUCCESS                       *
               *           SCF CONVERGED AFTER  14 CYCLES          *
               *****************************************************


----------------
TOTAL SCF ENERGY
----------------

Total Energy       :         -648.72285202 Eh          -17652.64625 eV

Components:
Nuclear Repulsion  :          964.72298180 Eh           26251.44693 eV
Electronic Energy  :        -1613.44583382 Eh          -43904.09318 eV
One Electron Energy:        -2797.60574395 Eh          -76126.72250 eV
Two Electron Energy:         1184.15991013 Eh           32222.62932 eV
CPCM Dielectric    :           -0.00820379 Eh              -0.22324 eV

Virial components:
Potential Energy   :        -1286.96508865 Eh          -35020.10045 eV
Kinetic Energy     :          638.24223663 Eh           17367.45420 eV
Virial Ratio       :            2.01642106


DFT components:
N(Alpha)           :       56.000027993540 electrons
N(Beta)            :       56.000027993540 electrons
N(Total)           :      112.000055987079 electrons
E(X)               :      -90.986441046039 Eh       
E(C)               :       -3.821433957122 Eh       
E(XC)              :      -94.807875003161 Eh       
DFET-embed. en.    :        0.000000000000 Eh       
CPCM Solvation Model Properties:
Surface-charge          :           -0.01422118
Charge-correction       :            0.00002949 Eh               0.00080 eV
Free-energy (cav+disp)  :  This term is not implemented in the current solvation scheme

---------------
SCF CONVERGENCE
---------------

  Last Energy change         ...   -4.9522e-10  Tolerance :   1.0000e-08
  Last MAX-Density change    ...    2.6435e-06  Tolerance :   1.0000e-07
  Last RMS-Density change    ...    1.0496e-07  Tolerance :   5.0000e-09
  Last Orbital Gradient      ...    3.5283e-07  Tolerance :   1.0000e-05
  Last Orbital Rotation      ...    1.1657e-06  Tolerance :   1.0000e-05

             **** THE GBW FILE WAS UPDATED (Ibuprofeno\Ibuprofeno_TPSS_STO-3G\Ibuprofeno_TPSS_STO-3G.orcainp.gbw) ****
             **** DENSITY Ibuprofeno\Ibuprofeno_TPSS_STO-3G\Ibuprofeno_TPSS_STO-3G.orcainp.scfp WAS UPDATED ****
             **** ENERGY FILE WAS UPDATED (Ibuprofeno\Ibuprofeno_TPSS_STO-3G\Ibuprofeno_TPSS_STO-3G.orcainp.en.tmp) ****
             **** THE GBW FILE WAS UPDATED (Ibuprofeno\Ibuprofeno_TPSS_STO-3G\Ibuprofeno_TPSS_STO-3G.orcainp.gbw) ****
             **** DENSITY Ibuprofeno\Ibuprofeno_TPSS_STO-3G\Ibuprofeno_TPSS_STO-3G.orcainp.scfp WAS UPDATED ****
----------------
ORBITAL ENERGIES
----------------

  NO   OCC          E(Eh)            E(eV) 
   0   2.0000     -18.694504      -508.7033 
   1   2.0000     -18.616354      -506.5767 
   2   2.0000      -9.914159      -269.7780 
   3   2.0000      -9.848939      -268.0033 
   4   2.0000      -9.838231      -267.7119 
   5   2.0000      -9.832425      -267.5539 
   6   2.0000      -9.829224      -267.4668 
   7   2.0000      -9.828142      -267.4373 
   8   2.0000      -9.826168      -267.3836 
   9   2.0000      -9.819198      -267.1940 
  10   2.0000      -9.819008      -267.1888 
  11   2.0000      -9.818292      -267.1693 
  12   2.0000      -9.817807      -267.1561 
  13   2.0000      -9.817315      -267.1427 
  14   2.0000      -9.817183      -267.1391 
  15   2.0000      -0.959866       -26.1193 
  16   2.0000      -0.877846       -23.8874 
  17   2.0000      -0.758483       -20.6394 
  18   2.0000      -0.718890       -19.5620 
  19   2.0000      -0.694294       -18.8927 
  20   2.0000      -0.647350       -17.6153 
  21   2.0000      -0.644512       -17.5381 
  22   2.0000      -0.596300       -16.2262 
  23   2.0000      -0.587805       -15.9950 
  24   2.0000      -0.556396       -15.1403 
  25   2.0000      -0.520391       -14.1606 
  26   2.0000      -0.501025       -13.6336 
  27   2.0000      -0.486871       -13.2484 
  28   2.0000      -0.476446       -12.9648 
  29   2.0000      -0.428292       -11.6544 
  30   2.0000      -0.405065       -11.0224 
  31   2.0000      -0.392591       -10.6830 
  32   2.0000      -0.376767       -10.2523 
  33   2.0000      -0.363649        -9.8954 
  34   2.0000      -0.356882        -9.7113 
  35   2.0000      -0.351655        -9.5690 
  36   2.0000      -0.336036        -9.1440 
  37   2.0000      -0.333410        -9.0725 
  38   2.0000      -0.323001        -8.7893 
  39   2.0000      -0.310357        -8.4452 
  40   2.0000      -0.307955        -8.3799 
  41   2.0000      -0.300111        -8.1664 
  42   2.0000      -0.294773        -8.0212 
  43   2.0000      -0.282297        -7.6817 
  44   2.0000      -0.272189        -7.4066 
  45   2.0000      -0.267170        -7.2701 
  46   2.0000      -0.253181        -6.8894 
  47   2.0000      -0.252696        -6.8762 
  48   2.0000      -0.247878        -6.7451 
  49   2.0000      -0.244642        -6.6571 
  50   2.0000      -0.231708        -6.3051 
  51   2.0000      -0.201395        -5.4802 
  52   2.0000      -0.168298        -4.5796 
  53   2.0000      -0.160124        -4.3572 
  54   2.0000      -0.140044        -3.8108 
  55   2.0000      -0.096755        -2.6328 
  56   0.0000       0.058011         1.5785 
  57   0.0000       0.061648         1.6775 
  58   0.0000       0.091693         2.4951 
  59   0.0000       0.205407         5.5894 
  60   0.0000       0.284039         7.7291 
  61   0.0000       0.298751         8.1294 
  62   0.0000       0.320421         8.7191 
  63   0.0000       0.328873         8.9491 
  64   0.0000       0.336574         9.1586 
  65   0.0000       0.353418         9.6170 
  66   0.0000       0.372466        10.1353 
  67   0.0000       0.377459        10.2712 
  68   0.0000       0.391690        10.6584 
  69   0.0000       0.401371        10.9219 
  70   0.0000       0.414880        11.2895 
  71   0.0000       0.416035        11.3209 
  72   0.0000       0.428080        11.6487 
  73   0.0000       0.433398        11.7934 
  74   0.0000       0.442591        12.0435 
  75   0.0000       0.446718        12.1558 
  76   0.0000       0.448482        12.2038 
  77   0.0000       0.468513        12.7489 
  78   0.0000       0.474959        12.9243 
  79   0.0000       0.477127        12.9833 
  80   0.0000       0.482305        13.1242 
  81   0.0000       0.489140        13.3102 
  82   0.0000       0.492602        13.4044 
  83   0.0000       0.500225        13.6118 
  84   0.0000       0.515360        14.0237 
  85   0.0000       0.527393        14.3511 
  86   0.0000       0.557426        15.1683 
  87   0.0000       0.573718        15.6117 
  88   0.0000       0.575024        15.6472 
  89   0.0000       0.603148        16.4125 
  90   0.0000       0.631042        17.1715 
  91   0.0000       0.733474        19.9588 
  92   0.0000       0.773054        21.0359 

                    ********************************
                    * MULLIKEN POPULATION ANALYSIS *
                    ********************************

-----------------------
MULLIKEN ATOMIC CHARGES
-----------------------
   0 C :   -0.206809
   1 C :   -0.040316
   2 C :   -0.205248
   3 C :   -0.129320
   4 C :   -0.004183
   5 C :   -0.084880
   6 C :   -0.082594
   7 C :   -0.022370
   8 C :   -0.090978
   9 C :   -0.083052
  10 C :   -0.083035
  11 C :   -0.201537
  12 C :    0.215081
  13 O :   -0.242459
  14 O :   -0.236427
  15 H :    0.067747
  16 H :    0.066771
  17 H :    0.067485
  18 H :    0.068168
  19 H :    0.066823
  20 H :    0.067841
  21 H :    0.066782
  22 H :    0.071813
  23 H :    0.075568
  24 H :    0.079529
  25 H :    0.079696
  26 H :    0.080386
  27 H :    0.079059
  28 H :    0.088617
  29 H :    0.073538
  30 H :    0.074641
  31 H :    0.075836
  32 H :    0.247830
Sum of atomic charges:   -0.0000000

--------------------------------
MULLIKEN REDUCED ORBITAL CHARGES
--------------------------------
  0 C s       :     3.189371  s :     3.189371
      pz      :     0.990524  p :     3.017438
      px      :     1.025895
      py      :     1.001019
  1 C s       :     3.173165  s :     3.173165
      pz      :     0.935060  p :     2.867151
      px      :     0.945979
      py      :     0.986111
  2 C s       :     3.190677  s :     3.190677
      pz      :     1.025345  p :     3.014571
      px      :     0.963086
      py      :     1.026140
  3 C s       :     3.184204  s :     3.184204
      pz      :     0.979515  p :     2.945116
      px      :     0.939435
      py      :     1.026165
  4 C s       :     3.141453  s :     3.141453
      pz      :     0.979725  p :     2.862730
      px      :     0.935925
      py      :     0.947080
  5 C s       :     3.150898  s :     3.150898
      pz      :     1.006288  p :     2.933983
      px      :     0.950136
      py      :     0.977559
  6 C s       :     3.153538  s :     3.153538
      pz      :     1.004348  p :     2.929056
      px      :     0.959164
      py      :     0.965543
  7 C s       :     3.146102  s :     3.146102
      pz      :     1.002738  p :     2.876268
      px      :     0.922344
      py      :     0.951187
  8 C s       :     3.152179  s :     3.152179
      pz      :     1.007139  p :     2.938799
      px      :     0.954430
      py      :     0.977230
  9 C s       :     3.151362  s :     3.151362
      pz      :     1.006178  p :     2.931690
      px      :     0.956791
      py      :     0.968720
 10 C s       :     3.180722  s :     3.180722
      pz      :     0.959305  p :     2.902313
      px      :     0.934694
      py      :     1.008314
 11 C s       :     3.192281  s :     3.192281
      pz      :     0.951396  p :     3.009256
      px      :     1.030561
      py      :     1.027299
 12 C s       :     3.087553  s :     3.087553
      pz      :     0.895396  p :     2.697366
      px      :     0.834804
      py      :     0.967166
 13 O s       :     3.820336  s :     3.820336
      pz      :     1.522005  p :     4.422123
      px      :     1.230272
      py      :     1.669846
 14 O s       :     3.888400  s :     3.888400
      pz      :     1.643040  p :     4.348028
      px      :     1.266829
      py      :     1.438159
 15 H s       :     0.932253  s :     0.932253
 16 H s       :     0.933229  s :     0.933229
 17 H s       :     0.932515  s :     0.932515
 18 H s       :     0.931832  s :     0.931832
 19 H s       :     0.933177  s :     0.933177
 20 H s       :     0.932159  s :     0.932159
 21 H s       :     0.933218  s :     0.933218
 22 H s       :     0.928187  s :     0.928187
 23 H s       :     0.924432  s :     0.924432
 24 H s       :     0.920471  s :     0.920471
 25 H s       :     0.920304  s :     0.920304
 26 H s       :     0.919614  s :     0.919614
 27 H s       :     0.920941  s :     0.920941
 28 H s       :     0.911383  s :     0.911383
 29 H s       :     0.926462  s :     0.926462
 30 H s       :     0.925359  s :     0.925359
 31 H s       :     0.924164  s :     0.924164
 32 H s       :     0.752170  s :     0.752170


                     *******************************
                     * LOEWDIN POPULATION ANALYSIS *
                     *******************************

----------------------
LOEWDIN ATOMIC CHARGES
----------------------
   0 C :   -0.112853
   1 C :    0.005234
   2 C :   -0.111140
   3 C :   -0.062460
   4 C :    0.004473
   5 C :   -0.051543
   6 C :   -0.049731
   7 C :   -0.015078
   8 C :   -0.056677
   9 C :   -0.050485
  10 C :   -0.047788
  11 C :   -0.103669
  12 C :    0.131715
  13 O :   -0.132952
  14 O :   -0.187091
  15 H :    0.035099
  16 H :    0.034148
  17 H :    0.034722
  18 H :    0.031266
  19 H :    0.034119
  20 H :    0.035119
  21 H :    0.034098
  22 H :    0.036635
  23 H :    0.040434
  24 H :    0.042932
  25 H :    0.042955
  26 H :    0.043685
  27 H :    0.042469
  28 H :    0.050317
  29 H :    0.039363
  30 H :    0.040120
  31 H :    0.041196
  32 H :    0.181363

-------------------------------
LOEWDIN REDUCED ORBITAL CHARGES
-------------------------------
  0 C s       :     3.012102  s :     3.012102
      pz      :     1.022281  p :     3.100751
      px      :     1.048352
      py      :     1.030118
  1 C s       :     3.026013  s :     3.026013
      pz      :     0.973746  p :     2.968753
      px      :     0.982890
      py      :     1.012116
  2 C s       :     3.013593  s :     3.013593
      pz      :     1.047674  p :     3.097547
      px      :     1.001452
      py      :     1.048421
  3 C s       :     3.023362  s :     3.023362
      pz      :     1.009513  p :     3.039098
      px      :     0.981884
      py      :     1.047701
  4 C s       :     3.032888  s :     3.032888
      pz      :     0.982392  p :     2.962639
      px      :     0.981652
      py      :     0.998595
  5 C s       :     3.027663  s :     3.027663
      pz      :     1.008555  p :     3.023880
      px      :     1.003688
      py      :     1.011636
  6 C s       :     3.030558  s :     3.030558
      pz      :     1.007263  p :     3.019173
      px      :     1.007838
      py      :     1.004072
  7 C s       :     3.038178  s :     3.038178
      pz      :     1.005727  p :     2.976900
      px      :     0.969570
      py      :     1.001603
  8 C s       :     3.028519  s :     3.028519
      pz      :     1.009418  p :     3.028158
      px      :     1.007407
      py      :     1.011332
  9 C s       :     3.028372  s :     3.028372
      pz      :     1.008791  p :     3.022114
      px      :     1.006115
      py      :     1.007208
 10 C s       :     3.037495  s :     3.037495
      pz      :     0.998876  p :     3.010293
      px      :     0.975946
      py      :     1.035471
 11 C s       :     3.013757  s :     3.013757
      pz      :     0.988555  p :     3.089912
      px      :     1.051926
      py      :     1.049430
 12 C s       :     3.049586  s :     3.049586
      pz      :     0.930370  p :     2.818699
      px      :     0.907188
      py      :     0.981142
 13 O s       :     3.672474  s :     3.672474
      pz      :     1.539777  p :     4.460478
      px      :     1.245070
      py      :     1.675631
 14 O s       :     3.773905  s :     3.773905
      pz      :     1.649651  p :     4.413186
      px      :     1.319197
      py      :     1.444338
 15 H s       :     0.964901  s :     0.964901
 16 H s       :     0.965852  s :     0.965852
 17 H s       :     0.965278  s :     0.965278
 18 H s       :     0.968734  s :     0.968734
 19 H s       :     0.965881  s :     0.965881
 20 H s       :     0.964881  s :     0.964881
 21 H s       :     0.965902  s :     0.965902
 22 H s       :     0.963365  s :     0.963365
 23 H s       :     0.959566  s :     0.959566
 24 H s       :     0.957068  s :     0.957068
 25 H s       :     0.957045  s :     0.957045
 26 H s       :     0.956315  s :     0.956315
 27 H s       :     0.957531  s :     0.957531
 28 H s       :     0.949683  s :     0.949683
 29 H s       :     0.960637  s :     0.960637
 30 H s       :     0.959880  s :     0.959880
 31 H s       :     0.958804  s :     0.958804
 32 H s       :     0.818637  s :     0.818637


                      *****************************
                      * MAYER POPULATION ANALYSIS *
                      *****************************

  NA   - Mulliken gross atomic population
  ZA   - Total nuclear charge
  QA   - Mulliken gross atomic charge
  VA   - Mayer's total valence
  BVA  - Mayer's bonded valence
  FA   - Mayer's free valence

  ATOM       NA         ZA         QA         VA         BVA        FA
  0 C      6.2068     6.0000    -0.2068     3.9607     3.9607    -0.0000
  1 C      6.0403     6.0000    -0.0403     3.9602     3.9602    -0.0000
  2 C      6.2052     6.0000    -0.2052     3.9601     3.9601    -0.0000
  3 C      6.1293     6.0000    -0.1293     3.9591     3.9591    -0.0000
  4 C      6.0042     6.0000    -0.0042     3.9720     3.9720     0.0000
  5 C      6.0849     6.0000    -0.0849     3.9695     3.9695    -0.0000
  6 C      6.0826     6.0000    -0.0826     3.9682     3.9682    -0.0000
  7 C      6.0224     6.0000    -0.0224     3.9693     3.9693     0.0000
  8 C      6.0910     6.0000    -0.0910     3.9691     3.9691    -0.0000
  9 C      6.0831     6.0000    -0.0831     3.9690     3.9690    -0.0000
 10 C      6.0830     6.0000    -0.0830     3.9595     3.9595    -0.0000
 11 C      6.2015     6.0000    -0.2015     3.9552     3.9552    -0.0000
 12 C      5.7849     6.0000     0.2151     3.9125     3.9125    -0.0000
 13 O      8.2425     8.0000    -0.2425     2.3213     2.3213     0.0000
 14 O      8.2364     8.0000    -0.2364     2.2737     2.2737     0.0000
 15 H      0.9323     1.0000     0.0677     0.9954     0.9954    -0.0000
 16 H      0.9332     1.0000     0.0668     0.9955     0.9955     0.0000
 17 H      0.9325     1.0000     0.0675     0.9954     0.9954     0.0000
 18 H      0.9318     1.0000     0.0682     0.9954     0.9954    -0.0000
 19 H      0.9332     1.0000     0.0668     0.9955     0.9955    -0.0000
 20 H      0.9322     1.0000     0.0678     0.9954     0.9954    -0.0000
 21 H      0.9332     1.0000     0.0668     0.9955     0.9955    -0.0000
 22 H      0.9282     1.0000     0.0718     0.9948     0.9948     0.0000
 23 H      0.9244     1.0000     0.0756     0.9943     0.9943     0.0000
 24 H      0.9205     1.0000     0.0795     0.9937     0.9937    -0.0000
 25 H      0.9203     1.0000     0.0797     0.9936     0.9936    -0.0000
 26 H      0.9196     1.0000     0.0804     0.9935     0.9935    -0.0000
 27 H      0.9209     1.0000     0.0791     0.9937     0.9937    -0.0000
 28 H      0.9114     1.0000     0.0886     0.9921     0.9921    -0.0000
 29 H      0.9265     1.0000     0.0735     0.9946     0.9946    -0.0000
 30 H      0.9254     1.0000     0.0746     0.9944     0.9944    -0.0000
 31 H      0.9242     1.0000     0.0758     0.9942     0.9942     0.0000
 32 H      0.7522     1.0000     0.2478     0.9386     0.9386     0.0000

  Mayer bond orders larger than 0.100000
B(  0-C ,  1-C ) :   0.9951 B(  0-C , 15-H ) :   0.9775 B(  0-C , 16-H ) :   0.9777 
B(  0-C , 17-H ) :   0.9765 B(  1-C ,  2-C ) :   0.9923 B(  1-C ,  3-C ) :   0.9697 
B(  1-C , 18-H ) :   0.9571 B(  2-C , 19-H ) :   0.9777 B(  2-C , 20-H ) :   0.9773 
B(  2-C , 21-H ) :   0.9777 B(  3-C ,  4-C ) :   0.9956 B(  3-C , 22-H ) :   0.9654 
B(  3-C , 23-H ) :   0.9567 B(  4-C ,  5-C ) :   1.4012 B(  4-C ,  7-C ) :   0.1068 
B(  4-C ,  9-C ) :   1.4014 B(  5-C ,  6-C ) :   1.4391 B(  5-C ,  8-C ) :   0.1115 
B(  5-C , 24-H ) :   0.9595 B(  6-C ,  7-C ) :   1.3949 B(  6-C ,  9-C ) :   0.1101 
B(  6-C , 25-H ) :   0.9592 B(  7-C ,  8-C ) :   1.3905 B(  7-C , 10-C ) :   0.9830 
B(  8-C ,  9-C ) :   1.4375 B(  8-C , 26-H ) :   0.9587 B(  9-C , 27-H ) :   0.9594 
B( 10-C , 11-C ) :   0.9773 B( 10-C , 12-C ) :   0.8937 B( 10-C , 28-H ) :   0.9448 
B( 11-C , 29-H ) :   0.9762 B( 11-C , 30-H ) :   0.9763 B( 11-C , 31-H ) :   0.9734 
B( 12-C , 13-O ) :   1.1024 B( 12-C , 14-O ) :   1.8608 B( 13-O , 14-O ) :   0.2624 
B( 13-O , 32-H ) :   0.8764 

-------
TIMINGS
-------

Total SCF time: 0 days 0 hours 0 min 13 sec 

Total time                  ....      13.625 sec
Sum of individual times     ....      13.465 sec  ( 98.8%)

Fock matrix formation       ....      12.376 sec  ( 90.8%)
  Split-RI-J                ....       2.391 sec  ( 19.3% of F)
  XC integration            ....       5.408 sec  ( 43.7% of F)
    Basis function eval.    ....       1.681 sec  ( 31.1% of XC)
    Density eval.           ....       1.755 sec  ( 32.5% of XC)
    XC-Functional eval.     ....       0.900 sec  ( 16.6% of XC)
    XC-Potential eval.      ....       0.781 sec  ( 14.4% of XC)
Diagonalization             ....       0.005 sec  (  0.0%)
Density matrix formation    ....       0.000 sec  (  0.0%)
Population analysis         ....       0.003 sec  (  0.0%)
Initial guess               ....       0.141 sec  (  1.0%)
Orbital Transformation      ....       0.000 sec  (  0.0%)
Orbital Orthonormalization  ....       0.000 sec  (  0.0%)
DIIS solution               ....       0.003 sec  (  0.0%)
SOSCF solution              ....       0.006 sec  (  0.0%)
Grid generation             ....       0.931 sec  (  6.8%)

Maximum memory used throughout the entire SCF-calculation: 73.8 MB

-------------------------   --------------------
FINAL SINGLE POINT ENERGY      -648.722852018419
-------------------------   --------------------

------------------------------------------------------------------------------
                         ORCA SCF GRADIENT CALCULATION
------------------------------------------------------------------------------

Gradient of the Kohn-Sham DFT energy:
Kohn-Sham wavefunction type      ... RKS
Hartree-Fock exchange scaling    ...    0.000
Number of operators              ...    1
Number of atoms                  ...   33
Basis set dimensions             ...   93
Integral neglect threshold       ... 2.5e-11
Integral primitive cutoff        ... 2.5e-12
SHARK Integral package           ... ON

Nuc. rep. gradient       (SHARK) ... done (  0.0 sec)
HCore & Overlap gradient (SHARK) ... done (  0.1 sec)
RI-J gradient            (SHARK) ... done (  0.6 sec)
Exchange-correlation gradient    ... done

------------------
CARTESIAN GRADIENT
------------------

   1   C   :   -0.005120835   -0.009325038   -0.012962798
   2   C   :    0.001574162    0.006663771   -0.004021986
   3   C   :    0.015340673    0.003889120    0.003224495
   4   C   :    0.007351160   -0.002247633    0.014448600
   5   C   :    0.003399456   -0.003888730   -0.001130877
   6   C   :   -0.006676975    0.005726252   -0.001394299
   7   C   :    0.005126838    0.006455716   -0.000835390
   8   C   :   -0.005939486    0.000656101   -0.004399364
   9   C   :    0.002327176   -0.007149571    0.001548576
  10   C   :   -0.003775547   -0.006011680    0.000847390
  11   C   :    0.013525901    0.024785889    0.016895477
  12   C   :   -0.005707813   -0.005525492    0.020449107
  13   C   :    0.026341889    0.014635554    0.012613728
  14   O   :   -0.034815134   -0.054154199   -0.065039081
  15   O   :   -0.064169062   -0.017028217    0.003366371
  16   H   :    0.004522170    0.002770011   -0.006046488
  17   H   :    0.002891075   -0.006730491    0.002543002
  18   H   :   -0.008841238   -0.001018287   -0.000292495
  19   H   :   -0.005461948    0.008877877   -0.001278140
  20   H   :    0.001856428   -0.006866905    0.001914146
  21   H   :    0.002829702    0.002365133   -0.007056871
  22   H   :    0.001232573    0.005313738    0.006321939
  23   H   :    0.001640923   -0.007786836   -0.000201700
  24   H   :    0.004453045    0.008942533    0.004192676
  25   H   :    0.005475250    0.009894336   -0.002477241
  26   H   :   -0.008877852    0.007456522   -0.001707922
  27   H   :   -0.006411302   -0.009023924    0.002090770
  28   H   :    0.007863811   -0.008118921    0.001646251
  29   H   :   -0.001668814    0.010476263    0.000020332
  30   H   :    0.004381847   -0.006239161   -0.000463286
  31   H   :    0.003531905    0.005608937    0.004001240
  32   H   :   -0.009088048    0.001229870   -0.001930625
  33   H   :    0.050888071    0.025367458    0.015114463

Difference to translation invariance:
           :    0.0000000000    0.0000000000    0.0000000000

Difference to rotation invariance:
           :   -0.0000839792    0.0002109017    0.0005178692

Norm of the cartesian gradient     ...    0.1470731189
RMS gradient                       ...    0.0147814046
MAX gradient                       ...    0.0650390814

-------
TIMINGS
-------

Total SCF gradient time            ...        4.583 sec

One electron gradient       ....       0.095 sec  (  2.1%)
RI-J Coulomb gradient       ....       0.572 sec  ( 12.5%)
XC gradient                 ....       3.352 sec  ( 73.1%)
CPCM gradient               ....       0.329 sec  (  7.2%)
   A-Matrix (El+Nuc)        ....       0.073 sec  (  1.6%)
   Potential                ....       0.256 sec  (  5.6%)

Maximum memory used throughout the entire SCFGRAD-calculation: 30.9 MB
------------------------------------------------------------------------------
                         ORCA GEOMETRY RELAXATION STEP
------------------------------------------------------------------------------

Reading the OPT-File                    .... done
Getting information on internals        .... done
Copying old internal coords+grads       .... done
Making the new internal coordinates     .... (new redundants).... done
Validating the new internal coordinates .... (new redundants).... done
Calculating the B-matrix                .... done
Calculating the G,G- and P matrices     .... done
Transforming gradient to internals      .... done
Projecting the internal gradient        .... done
Number of atoms                         ....  33
Number of internal coordinates          .... 172
Current Energy                          ....  -648.722852018 Eh
Current gradient norm                   ....     0.147073119 Eh/bohr
Maximum allowed component of the step   ....  0.300
Current trust radius                    ....  0.300
Evaluating the initial hessian          ....  (Almloef) done
Projecting the Hessian                  .... done
Forming the augmented Hessian           .... done
Diagonalizing the augmented Hessian     .... done
Last element of RFO vector              ....  0.960744351
Lowest eigenvalues of augmented Hessian:
 -0.039518427  0.001821752  0.010579402  0.010798277  0.010812667
Length of the computed step             ....  0.288771101
The final length of the internal step   ....  0.288771101
Converting the step to cartesian space:
 Initial RMS(Int)=    0.0220185900
Transforming coordinates:
 Iter   0:  RMS(Cart)=    0.0761894088 RMS(Int)=    0.6775335614
 Iter   1:  RMS(Cart)=    0.0023852867 RMS(Int)=    0.0008512992
 Iter   2:  RMS(Cart)=    0.0002316914 RMS(Int)=    0.0001119289
 Iter   3:  RMS(Cart)=    0.0000152675 RMS(Int)=    0.0000070723
 Iter   4:  RMS(Cart)=    0.0000034567 RMS(Int)=    0.0000013324
 Iter   5:  RMS(Cart)=    0.0000002649 RMS(Int)=    0.0000001422
 Iter   6:  RMS(Cart)=    0.0000000283 RMS(Int)=    0.0000000100
done
Storing new coordinates                 .... done

                                .--------------------.
          ----------------------|Geometry convergence|-------------------------
          Item                value                   Tolerance       Converged
          ---------------------------------------------------------------------
          RMS gradient        0.0111755677            0.0001000000      NO
          MAX gradient        0.0663290351            0.0003000000      NO
          RMS step            0.0220185900            0.0020000000      NO
          MAX step            0.1221316191            0.0040000000      NO
          ........................................................
          Max(Bonds)      0.0646      Max(Angles)    5.13
          Max(Dihed)        0.96      Max(Improp)    0.00
          ---------------------------------------------------------------------

The optimization has not yet converged - more geometry cycles are needed


    ---------------------------------------------------------------------------
                         Redundant Internal Coordinates
                            (Angstroem and degrees)

        Definition                    Value    dE/dq     Step     New-Value
    ----------------------------------------------------------------------------
[...]
  21   2.0000      -0.636988       -17.3333 
  22   2.0000      -0.591813       -16.1040 
  23   2.0000      -0.584032       -15.8923 
  24   2.0000      -0.546327       -14.8663 
  25   2.0000      -0.514902       -14.0112 
  26   2.0000      -0.491446       -13.3729 
  27   2.0000      -0.473815       -12.8932 
  28   2.0000      -0.445116       -12.1122 
  29   2.0000      -0.413143       -11.2422 
  30   2.0000      -0.398798       -10.8519 
  31   2.0000      -0.384924       -10.4743 
  32   2.0000      -0.372341       -10.1319 
  33   2.0000      -0.356290        -9.6951 
  34   2.0000      -0.352522        -9.5926 
  35   2.0000      -0.348073        -9.4715 
  36   2.0000      -0.333521        -9.0756 
  37   2.0000      -0.324157        -8.8208 
  38   2.0000      -0.321733        -8.7548 
  39   2.0000      -0.308878        -8.4050 
  40   2.0000      -0.307176        -8.3587 
  41   2.0000      -0.294453        -8.0125 
  42   2.0000      -0.292431        -7.9575 
  43   2.0000      -0.281886        -7.6705 
  44   2.0000      -0.268083        -7.2949 
  45   2.0000      -0.259870        -7.0714 
  46   2.0000      -0.251123        -6.8334 
  47   2.0000      -0.248573        -6.7640 
  48   2.0000      -0.244869        -6.6632 
  49   2.0000      -0.241912        -6.5828 
  50   2.0000      -0.231416        -6.2972 
  51   2.0000      -0.219415        -5.9706 
  52   2.0000      -0.167545        -4.5591 
  53   2.0000      -0.159276        -4.3341 
  54   2.0000      -0.135225        -3.6797 
  55   2.0000      -0.097980        -2.6662 
  56   0.0000       0.048537         1.3208 
  57   0.0000       0.058038         1.5793 
  58   0.0000       0.075752         2.0613 
  59   0.0000       0.190419         5.1816 
  60   0.0000       0.246273         6.7014 
  61   0.0000       0.282022         7.6742 
  62   0.0000       0.294223         8.0062 
  63   0.0000       0.309827         8.4308 
  64   0.0000       0.323745         8.8096 
  65   0.0000       0.336732         9.1629 
  66   0.0000       0.345659         9.4059 
  67   0.0000       0.355079         9.6622 
  68   0.0000       0.366348         9.9688 
  69   0.0000       0.381408        10.3787 
  70   0.0000       0.390490        10.6258 
  71   0.0000       0.393950        10.7199 
  72   0.0000       0.403102        10.9690 
  73   0.0000       0.404113        10.9965 
  74   0.0000       0.413226        11.2445 
  75   0.0000       0.432077        11.7574 
  76   0.0000       0.435924        11.8621 
  77   0.0000       0.448557        12.2059 
  78   0.0000       0.449436        12.2298 
  79   0.0000       0.460360        12.5270 
  80   0.0000       0.465021        12.6539 
  81   0.0000       0.467515        12.7217 
  82   0.0000       0.470782        12.8106 
  83   0.0000       0.474311        12.9067 
  84   0.0000       0.479468        13.0470 
  85   0.0000       0.502097        13.6627 
  86   0.0000       0.527954        14.3664 
  87   0.0000       0.550865        14.9898 
  88   0.0000       0.558165        15.1884 
  89   0.0000       0.572620        15.5818 
  90   0.0000       0.581252        15.8167 
  91   0.0000       0.705601        19.2004 
  92   0.0000       0.739195        20.1145 

                    ********************************
                    * MULLIKEN POPULATION ANALYSIS *
                    ********************************

-----------------------
MULLIKEN ATOMIC CHARGES
-----------------------
   0 C :   -0.200922
   1 C :   -0.035658
   2 C :   -0.199863
   3 C :   -0.124059
   4 C :   -0.003003
   5 C :   -0.082257
   6 C :   -0.081167
   7 C :   -0.030555
   8 C :   -0.083096
   9 C :   -0.081229
  10 C :   -0.070670
  11 C :   -0.196998
  12 C :    0.175161
  13 O :   -0.204833
  14 O :   -0.217078
  15 H :    0.066052
  16 H :    0.064885
  17 H :    0.066623
  18 H :    0.063488
  19 H :    0.065466
  20 H :    0.066668
  21 H :    0.066068
  22 H :    0.070654
  23 H :    0.072933
  24 H :    0.078685
  25 H :    0.079818
  26 H :    0.080604
  27 H :    0.078666
  28 H :    0.084346
  29 H :    0.073537
  30 H :    0.074428
  31 H :    0.076089
  32 H :    0.207219
Sum of atomic charges:    0.0000000

--------------------------------
MULLIKEN REDUCED ORBITAL CHARGES
--------------------------------
  0 C s       :     3.200427  s :     3.200427
      pz      :     0.998556  p :     3.000495
      px      :     1.019587
      py      :     0.982352
  1 C s       :     3.197714  s :     3.197714
      pz      :     0.927176  p :     2.837944
      px      :     0.942519
      py      :     0.968249
  2 C s       :     3.201304  s :     3.201304
      pz      :     1.020409  p :     2.998559
      px      :     0.960713
      py      :     1.017437
  3 C s       :     3.201708  s :     3.201708
      pz      :     0.970514  p :     2.922351
      px      :     0.931937
      py      :     1.019900
  4 C s       :     3.163617  s :     3.163617
      pz      :     0.974635  p :     2.839387
      px      :     0.928032
      py      :     0.936719
  5 C s       :     3.163592  s :     3.163592
      pz      :     1.005158  p :     2.918665
      px      :     0.942056
      py      :     0.971450
  6 C s       :     3.166369  s :     3.166369
      pz      :     1.002732  p :     2.914798
      px      :     0.954064
      py      :     0.958002
  7 C s       :     3.165427  s :     3.165427
      pz      :     1.007662  p :     2.865128
      px      :     0.915992
      py      :     0.941475
  8 C s       :     3.165400  s :     3.165400
      pz      :     1.001549  p :     2.917696
      px      :     0.945594
      py      :     0.970553
  9 C s       :     3.164037  s :     3.164037
      pz      :     1.005744  p :     2.917193
      px      :     0.949504
      py      :     0.961945
 10 C s       :     3.211123  s :     3.211123
      pz      :     0.940385  p :     2.859547
      px      :     0.924691
      py      :     0.994471
 11 C s       :     3.202192  s :     3.202192
      pz      :     0.963884  p :     2.994806
      px      :     1.018873
      py      :     1.012049
 12 C s       :     3.166700  s :     3.166700
      pz      :     0.876756  p :     2.658139
      px      :     0.831364
      py      :     0.950019
 13 O s       :     3.877383  s :     3.877383
      pz      :     1.440845  p :     4.327450
      px      :     1.235074
      py      :     1.651531
 14 O s       :     3.898212  s :     3.898212
      pz      :     1.737337  p :     4.318866
      px      :     1.269993
      py      :     1.311536
 15 H s       :     0.933948  s :     0.933948
 16 H s       :     0.935115  s :     0.935115
 17 H s       :     0.933377  s :     0.933377
 18 H s       :     0.936512  s :     0.936512
 19 H s       :     0.934534  s :     0.934534
 20 H s       :     0.933332  s :     0.933332
 21 H s       :     0.933932  s :     0.933932
 22 H s       :     0.929346  s :     0.929346
 23 H s       :     0.927067  s :     0.927067
 24 H s       :     0.921315  s :     0.921315
 25 H s       :     0.920182  s :     0.920182
 26 H s       :     0.919396  s :     0.919396
 27 H s       :     0.921334  s :     0.921334
 28 H s       :     0.915654  s :     0.915654
 29 H s       :     0.926463  s :     0.926463
 30 H s       :     0.925572  s :     0.925572
 31 H s       :     0.923911  s :     0.923911
 32 H s       :     0.792781  s :     0.792781


                     *******************************
                     * LOEWDIN POPULATION ANALYSIS *
                     *******************************

----------------------
LOEWDIN ATOMIC CHARGES
----------------------
   0 C :   -0.108588
   1 C :    0.007626
   2 C :   -0.107083
   3 C :   -0.058421
   4 C :    0.005390
   5 C :   -0.049727
   6 C :   -0.048102
   7 C :   -0.022243
   8 C :   -0.049395
   9 C :   -0.048906
  10 C :   -0.035592
  11 C :   -0.100879
  12 C :    0.105670
  13 O :   -0.125180
  14 O :   -0.169155
  15 H :    0.034049
  16 H :    0.032935
  17 H :    0.034487
  18 H :    0.027808
  19 H :    0.033318
  20 H :    0.034527
  21 H :    0.033913
  22 H :    0.035981
  23 H :    0.038368
  24 H :    0.042825
  25 H :    0.043651
  26 H :    0.044436
  27 H :    0.042759
  28 H :    0.046823
  29 H :    0.039849
  30 H :    0.040476
  31 H :    0.042032
  32 H :    0.156349

-------------------------------
LOEWDIN REDUCED ORBITAL CHARGES
-------------------------------
  0 C s       :     3.025967  s :     3.025967
      pz      :     1.026216  p :     3.082622
      px      :     1.042269
      py      :     1.014137
  1 C s       :     3.055694  s :     3.055694
      pz      :     0.963211  p :     2.936681
      px      :     0.976614
      py      :     0.996855
  2 C s       :     3.026768  s :     3.026768
      pz      :     1.042557  p :     3.080315
      px      :     0.997305
      py      :     1.040453
  3 C s       :     3.044189  s :     3.044189
      pz      :     1.001527  p :     3.014232
      px      :     0.972299
      py      :     1.040406
  4 C s       :     3.056380  s :     3.056380
      pz      :     0.976119  p :     2.938230
      px      :     0.972700
      py      :     0.989411
  5 C s       :     3.041634  s :     3.041634
      pz      :     1.006448  p :     3.008093
      px      :     0.995659
      py      :     1.005986
  6 C s       :     3.044213  s :     3.044213
      pz      :     1.004296  p :     3.003890
      px      :     1.001839
      py      :     0.997755
  7 C s       :     3.057472  s :     3.057472
      pz      :     1.009058  p :     2.964771
      px      :     0.962638
      py      :     0.993074
  8 C s       :     3.042944  s :     3.042944
      pz      :     1.002928  p :     3.006451
      px      :     0.998357
      py      :     1.005166
  9 C s       :     3.042119  s :     3.042119
      pz      :     1.007347  p :     3.006787
      px      :     0.998319
      py      :     1.001122
 10 C s       :     3.072877  s :     3.072877
      pz      :     0.978572  p :     2.962716
      px      :     0.964566
      py      :     1.019578
 11 C s       :     3.026093  s :     3.026093
      pz      :     0.997156  p :     3.074786
      px      :     1.041481
      py      :     1.036149
 12 C s       :     3.124675  s :     3.124675
      pz      :     0.912680  p :     2.769655
      px      :     0.891298
      py      :     0.965678
 13 O s       :     3.760085  s :     3.760085
      pz      :     1.458965  p :     4.365095
      px      :     1.251824
      py      :     1.654307
 14 O s       :     3.794003  s :     3.794003
      pz      :     1.742487  p :     4.375153
      px      :     1.309886
      py      :     1.322779
 15 H s       :     0.965951  s :     0.965951
 16 H s       :     0.967065  s :     0.967065
 17 H s       :     0.965513  s :     0.965513
 18 H s       :     0.972192  s :     0.972192
 19 H s       :     0.966682  s :     0.966682
 20 H s       :     0.965473  s :     0.965473
 21 H s       :     0.966087  s :     0.966087
 22 H s       :     0.964019  s :     0.964019
 23 H s       :     0.961632  s :     0.961632
 24 H s       :     0.957175  s :     0.957175
 25 H s       :     0.956349  s :     0.956349
 26 H s       :     0.955564  s :     0.955564
 27 H s       :     0.957241  s :     0.957241
 28 H s       :     0.953177  s :     0.953177
 29 H s       :     0.960151  s :     0.960151
 30 H s       :     0.959524  s :     0.959524
 31 H s       :     0.957968  s :     0.957968
 32 H s       :     0.843651  s :     0.843651


                      *****************************
                      * MAYER POPULATION ANALYSIS *
                      *****************************

  NA   - Mulliken gross atomic population
  ZA   - Total nuclear charge
  QA   - Mulliken gross atomic charge
  VA   - Mayer's total valence
  BVA  - Mayer's bonded valence
  FA   - Mayer's free valence

  ATOM       NA         ZA         QA         VA         BVA        FA
  0 C      6.2009     6.0000    -0.2009     3.9568     3.9568     0.0000
  1 C      6.0357     6.0000    -0.0357     3.9485     3.9485    -0.0000
  2 C      6.1999     6.0000    -0.1999     3.9564     3.9564    -0.0000
  3 C      6.1241     6.0000    -0.1241     3.9514     3.9514     0.0000
  4 C      6.0030     6.0000    -0.0030     3.9625     3.9625     0.0000
  5 C      6.0823     6.0000    -0.0823     3.9644     3.9644    -0.0000
  6 C      6.0812     6.0000    -0.0812     3.9633     3.9633     0.0000
  7 C      6.0306     6.0000    -0.0306     3.9614     3.9614     0.0000
  8 C      6.0831     6.0000    -0.0831     3.9640     3.9640     0.0000
  9 C      6.0812     6.0000    -0.0812     3.9640     3.9640     0.0000
 10 C      6.0707     6.0000    -0.0707     3.9444     3.9444    -0.0000
 11 C      6.1970     6.0000    -0.1970     3.9520     3.9520    -0.0000
 12 C      5.8248     6.0000     0.1752     3.8879     3.8879    -0.0000
 13 O      8.2048     8.0000    -0.2048     2.3267     2.3267    -0.0000
 14 O      8.2171     8.0000    -0.2171     2.2871     2.2871     0.0000
 15 H      0.9339     1.0000     0.0661     0.9956     0.9956     0.0000
 16 H      0.9351     1.0000     0.0649     0.9958     0.9958     0.0000
 17 H      0.9334     1.0000     0.0666     0.9956     0.9956    -0.0000
 18 H      0.9365     1.0000     0.0635     0.9960     0.9960     0.0000
 19 H      0.9345     1.0000     0.0655     0.9957     0.9957     0.0000
 20 H      0.9333     1.0000     0.0667     0.9956     0.9956     0.0000
 21 H      0.9339     1.0000     0.0661     0.9956     0.9956    -0.0000
 22 H      0.9293     1.0000     0.0707     0.9950     0.9950     0.0000
 23 H      0.9271     1.0000     0.0729     0.9947     0.9947    -0.0000
 24 H      0.9213     1.0000     0.0787     0.9938     0.9938    -0.0000
 25 H      0.9202     1.0000     0.0798     0.9936     0.9936     0.0000
 26 H      0.9194     1.0000     0.0806     0.9935     0.9935     0.0000
 27 H      0.9213     1.0000     0.0787     0.9938     0.9938     0.0000
 28 H      0.9157     1.0000     0.0843     0.9929     0.9929    -0.0000
 29 H      0.9265     1.0000     0.0735     0.9946     0.9946    -0.0000
 30 H      0.9256     1.0000     0.0744     0.9945     0.9945     0.0000
 31 H      0.9239     1.0000     0.0761     0.9942     0.9942     0.0000
 32 H      0.7928     1.0000     0.2072     0.9571     0.9571     0.0000

  Mayer bond orders larger than 0.100000
B(  0-C ,  1-C ) :   0.9902 B(  0-C , 15-H ) :   0.9774 B(  0-C , 16-H ) :   0.9781 
B(  0-C , 17-H ) :   0.9761 B(  1-C ,  2-C ) :   0.9872 B(  1-C ,  3-C ) :   0.9593 
B(  1-C , 18-H ) :   0.9592 B(  2-C , 19-H ) :   0.9782 B(  2-C , 20-H ) :   0.9770 
B(  2-C , 21-H ) :   0.9774 B(  3-C ,  4-C ) :   0.9905 B(  3-C , 22-H ) :   0.9660 
B(  3-C , 23-H ) :   0.9610 B(  4-C ,  5-C ) :   1.3953 B(  4-C ,  7-C ) :   0.1071 
B(  4-C ,  9-C ) :   1.3940 B(  5-C ,  6-C ) :   1.4401 B(  5-C ,  8-C ) :   0.1100 
B(  5-C , 24-H ) :   0.9584 B(  6-C ,  7-C ) :   1.3788 B(  6-C ,  9-C ) :   0.1066 
B(  6-C , 25-H ) :   0.9577 B(  7-C ,  8-C ) :   1.3756 B(  7-C , 10-C ) :   0.9808 
B(  8-C ,  9-C ) :   1.4419 B(  8-C , 26-H ) :   0.9574 B(  9-C , 27-H ) :   0.9583 
B( 10-C , 11-C ) :   0.9785 B( 10-C , 12-C ) :   0.8594 B( 10-C , 28-H ) :   0.9476 
B( 11-C , 29-H ) :   0.9762 B( 11-C , 30-H ) :   0.9759 B( 11-C , 31-H ) :   0.9731 
B( 12-C , 13-O ) :   1.0831 B( 12-C , 14-O ) :   1.8901 B( 13-O , 14-O ) :   0.2534 
B( 13-O , 32-H ) :   0.8885 

-------
TIMINGS
-------

Total SCF time: 0 days 0 hours 0 min 8 sec 

Total time                  ....       8.902 sec
Sum of individual times     ....       8.724 sec  ( 98.0%)

Fock matrix formation       ....       7.960 sec  ( 89.4%)
  Split-RI-J                ....       1.515 sec  ( 19.0% of F)
  XC integration            ....       3.474 sec  ( 43.6% of F)
    Basis function eval.    ....       1.082 sec  ( 31.1% of XC)
    Density eval.           ....       1.133 sec  ( 32.6% of XC)
    XC-Functional eval.     ....       0.675 sec  ( 19.4% of XC)
    XC-Potential eval.      ....       0.358 sec  ( 10.3% of XC)
Diagonalization             ....       0.000 sec  (  0.0%)
Density matrix formation    ....       0.001 sec  (  0.0%)
Population analysis         ....       0.011 sec  (  0.1%)
Initial guess               ....       0.001 sec  (  0.0%)
Orbital Transformation      ....       0.000 sec  (  0.0%)
Orbital Orthonormalization  ....       0.000 sec  (  0.0%)
DIIS solution               ....       0.000 sec  (  0.0%)
SOSCF solution              ....       0.004 sec  (  0.0%)
Grid generation             ....       0.747 sec  (  8.4%)

Maximum memory used throughout the entire SCF-calculation: 73.8 MB

-------------------------   --------------------
FINAL SINGLE POINT ENERGY      -648.750486041871
-------------------------   --------------------

                                *** OPTIMIZATION RUN DONE ***

                            ***************************************
                            *     ORCA property calculations      *
                            ***************************************

                                    ---------------------
                                    Active property flags
                                    ---------------------
   (+) Dipole Moment


------------------------------------------------------------------------------
                       ORCA ELECTRIC PROPERTIES CALCULATION
------------------------------------------------------------------------------

Dipole Moment Calculation                       ... on
Quadrupole Moment Calculation                   ... off
Polarizability Calculation                      ... off
GBWName                                         ... Ibuprofeno\Ibuprofeno_TPSS_STO-3G\Ibuprofeno_TPSS_STO-3G.orcainp.gbw
Electron density                                ... Ibuprofeno\Ibuprofeno_TPSS_STO-3G\Ibuprofeno_TPSS_STO-3G.orcainp.scfp
The origin for moment calculation is the CENTER OF MASS  = (11.352448,  3.618500  1.176209)

-------------
DIPOLE MOMENT
-------------
                                X             Y             Z
Electronic contribution:     20.12479       2.92519       0.30797
Nuclear contribution   :    -21.42536      -3.62998      -0.74140
                        -----------------------------------------
Total Dipole Moment    :     -1.30057      -0.70479      -0.43343
                        -----------------------------------------
Magnitude (a.u.)       :      1.54145
Magnitude (Debye)      :      3.91805



--------------------
Rotational spectrum 
--------------------
 
Rotational constants in cm-1:     0.046225     0.008295     0.007780 
Rotational constants in MHz :  1385.784945   248.678228   233.249947 

 Dipole components along the rotational axes: 
x,y,z [a.u.] :    -1.356883    -0.697186    -0.221061 
x,y,z [Debye]:    -3.448923    -1.772105    -0.561893 

 

Timings for individual modules:

Sum of individual times         ...      243.245 sec (=   4.054 min)
GTO integral calculation        ...        1.645 sec (=   0.027 min)   0.7 %
SCF iterations                  ...      165.672 sec (=   2.761 min)  68.1 %
SCF Gradient evaluation         ...       74.771 sec (=   1.246 min)  30.7 %
Geometry relaxation             ...        1.157 sec (=   0.019 min)   0.5 %
                             ****ORCA TERMINATED NORMALLY****
TOTAL RUN TIME: 0 days 0 hours 4 minutes 4 seconds 581 msec
