
                                 *****************
                                 * O   R   C   A *
                                 *****************

                                            #,                                       
                                            ###                                      
                                            ####                                     
                                            #####                                    
                                            ######                                   
                                           ########,                                 
                                     ,,################,,,,,                         
                               ,,#################################,,                 
                          ,,##########################################,,             
                       ,#########################################, ''#####,          
                    ,#############################################,,   '####,        
                  ,##################################################,,,,####,       
                ,###########''''           ''''###############################       
              ,#####''   ,,,,##########,,,,          '''####'''          '####       
            ,##' ,,,,###########################,,,                        '##       
           ' ,,###''''                  '''############,,,                           
         ,,##''                                '''############,,,,        ,,,,,,###''
      ,#''                                            '''#######################'''  
     '                                                          ''''####''''         
             ,#######,   #######,   ,#######,      ##                                
            ,#'     '#,  ##    ##  ,#'     '#,    #''#        ######   ,####,        
            ##       ##  ##   ,#'  ##            #'  '#       #        #'  '#        
            ##       ##  #######   ##           ,######,      #####,   #    #        
            '#,     ,#'  ##    ##  '#,     ,#' ,#      #,         ##   #,  ,#        
             '#######'   ##     ##  '#######'  #'      '#     #####' # '####'        



                  #######################################################
                  #                        -***-                        #
                  #          Department of theory and spectroscopy      #
                  #    Directorship and core code : Frank Neese         #
                  #        Max Planck Institute fuer Kohlenforschung    #
                  #                Kaiser Wilhelm Platz 1               #
                  #                 D-45470 Muelheim/Ruhr               #
                  #                      Germany                        #
                  #                                                     #
                  #                  All rights reserved                #
                  #                        -***-                        #
                  #######################################################



                         Program Version 5.0.4 -  RELEASE  -

 With contributions from (in alphabetic order):
   Daniel Aravena         : Magnetic Suceptibility
   Michael Atanasov       : Ab Initio Ligand Field Theory (pilot matlab implementation)
   Alexander A. Auer      : GIAO ZORA, VPT2 properties, NMR spectrum
   Ute Becker             : Parallelization
   Giovanni Bistoni       : ED, misc. LED, open-shell LED, HFLD
   Martin Brehm           : Molecular dynamics
   Dmytro Bykov           : SCF Hessian
   Vijay G. Chilkuri      : MRCI spin determinant printing, contributions to CSF-ICE
   Dipayan Datta          : RHF DLPNO-CCSD density
   Achintya Kumar Dutta   : EOM-CC, STEOM-CC
   Dmitry Ganyushin       : Spin-Orbit,Spin-Spin,Magnetic field MRCI
   Miquel Garcia          : C-PCM and meta-GGA Hessian, CC/C-PCM, Gaussian charge scheme
   Yang Guo               : DLPNO-NEVPT2, F12-NEVPT2, CIM, IAO-localization
   Andreas Hansen         : Spin unrestricted coupled pair/coupled cluster methods
   Benjamin Helmich-Paris : MC-RPA, TRAH-SCF, COSX integrals
   Lee Huntington         : MR-EOM, pCC
   Robert Izsak           : Overlap fitted RIJCOSX, COSX-SCS-MP3, EOM
   Marcus Kettner         : VPT2
   Christian Kollmar      : KDIIS, OOCD, Brueckner-CCSD(T), CCSD density, CASPT2, CASPT2-K
   Simone Kossmann        : Meta GGA functionals, TD-DFT gradient, OOMP2, MP2 Hessian
   Martin Krupicka        : Initial AUTO-CI
   Lucas Lang             : DCDCAS
   Marvin Lechner         : AUTO-CI (C++ implementation), FIC-MRCC
   Dagmar Lenk            : GEPOL surface, SMD
   Dimitrios Liakos       : Extrapolation schemes; Compound Job, initial MDCI parallelization
   Dimitrios Manganas     : Further ROCIS development; embedding schemes
   Dimitrios Pantazis     : SARC Basis sets
   Anastasios Papadopoulos: AUTO-CI, single reference methods and gradients
   Taras Petrenko         : DFT Hessian,TD-DFT gradient, ASA, ECA, R-Raman, ABS, FL, XAS/XES, NRVS
   Peter Pinski           : DLPNO-MP2, DLPNO-MP2 Gradient
   Christoph Reimann      : Effective Core Potentials
   Marius Retegan         : Local ZFS, SOC
   Christoph Riplinger    : Optimizer, TS searches, QM/MM, DLPNO-CCSD(T), (RO)-DLPNO pert. Triples
   Tobias Risthaus        : Range-separated hybrids, TD-DFT gradient, RPA, STAB
   Michael Roemelt        : Original ROCIS implementation
   Masaaki Saitow         : Open-shell DLPNO-CCSD energy and density
   Barbara Sandhoefer     : DKH picture change effects
   Avijit Sen             : IP-ROCIS
   Kantharuban Sivalingam : CASSCF convergence, NEVPT2, FIC-MRCI
   Bernardo de Souza      : ESD, SOC TD-DFT
   Georgi Stoychev        : AutoAux, RI-MP2 NMR, DLPNO-MP2 response
   Willem Van den Heuvel  : Paramagnetic NMR
   Boris Wezisla          : Elementary symmetry handling
   Frank Wennmohs         : Technical directorship


 We gratefully acknowledge several colleagues who have allowed us to
 interface, adapt or use parts of their codes:
   Stefan Grimme, W. Hujo, H. Kruse, P. Pracht,  : VdW corrections, initial TS optimization,
                  C. Bannwarth, S. Ehlert          DFT functionals, gCP, sTDA/sTD-DF
   Ed Valeev, F. Pavosevic, A. Kumar             : LibInt (2-el integral package), F12 methods
   Garnet Chan, S. Sharma, J. Yang, R. Olivares  : DMRG
   Ulf Ekstrom                                   : XCFun DFT Library
   Mihaly Kallay                                 : mrcc  (arbitrary order and MRCC methods)
   Jiri Pittner, Ondrej Demel                    : Mk-CCSD
   Frank Weinhold                                : gennbo (NPA and NBO analysis)
   Christopher J. Cramer and Donald G. Truhlar   : smd solvation model
   Lars Goerigk                                  : TD-DFT with DH, B97 family of functionals
   V. Asgeirsson, H. Jonsson                     : NEB implementation
   FAccTs GmbH                                   : IRC, NEB, NEB-TS, DLPNO-Multilevel, CI-OPT
                                                   MM, QMMM, 2- and 3-layer-ONIOM, Crystal-QMMM,
                                                   LR-CPCM, SF, NACMEs, symmetry and pop. for TD-DFT,
                                                   nearIR, NL-DFT gradient (VV10), updates on ESD,
                                                   ML-optimized integration grids
   S Lehtola, MJT Oliveira, MAL Marques          : LibXC Library
   Liviu Ungur et al                             : ANISO software


 Your calculation uses the libint2 library for the computation of 2-el integrals
 For citations please refer to: http://libint.valeyev.net

 Your ORCA version has been built with support for libXC version: 5.1.0
 For citations please refer to: https://tddft.org/programs/libxc/

 This ORCA versions uses:
   CBLAS   interface :  Fast vector & matrix operations
   LAPACKE interface :  Fast linear algebra routines
   Shared memory     :  Shared parallel matrices


================================================================================

----- Orbital basis set information -----
Your calculation utilizes the basis: STO-3G
   H-Ne       : W. J. Hehre, R. F. Stewart and J. A. Pople, J. Chem. Phys. 2657 (1969).
   Na-Ar      : W. J. Hehre, R. Ditchfield, R. F. Stewart and J. A. Pople, J. Chem. Phys. 2769 (1970).
   K,Ca,Ga-Kr : W. J. Pietro, B. A. Levy, W. J. Hehre and R. F. Stewart, J. Am. Chem. Soc. 19, 2225 (1980).
   Sc-Zn,Y-Cd : W. J. Pietro and W. J. Hehre, J. Comp. Chem. 4, 241 (1983).

----- AuxJ basis set information -----
Your calculation utilizes the auxiliary basis: def2/J
   F. Weigend, Phys. Chem. Chem. Phys. 8, 1057 (2006).

================================================================================
                                        WARNINGS
                       Please study these warnings very carefully!
================================================================================


WARNING: Geometry Optimization
  ===> : Switching off AutoStart
         For restart on a previous wavefunction, please use MOREAD

INFO   : the flag for use of the SHARK integral package has been found!

================================================================================
                                       INPUT FILE
================================================================================
NAME = Ibuprofeno\Ibuprofeno_B3LYP_STO-3G\Ibuprofeno_B3LYP_STO-3G.orcainp
|  1> # ORCA input file
|  2> # 
|  3> !B3LYP STO-3G Opt CPCM(WATER)
|  4> 
|  5> * xyz 0 1
|  6>    C        2.61581        -3.88133        -0.54439
|  7>    C        2.30712        -2.53453        -1.20072
|  8>    C        0.78978        -2.32508        -1.25519
|  9>    C        2.97892        -1.37043        -0.44728
| 10>    C        4.49014        -1.43992        -0.37082
| 11>    C        5.28132        -1.44182        -1.52424
| 12>    C        6.68061        -1.41159        -1.43194
| 13>    C        7.31787        -1.36158        -0.18274
| 14>    C        6.52138        -1.41135         0.96935
| 15>    C        5.12533        -1.44926         0.87607
| 16>    C        8.83031        -1.14689        -0.09838
| 17>    C        9.11651         0.17309         0.62847
| 18>    C        9.66865        -2.26129         0.53572
| 19>    O        9.02071        -3.41185         0.82973
| 20>    O       10.86783        -2.14395         0.74380
| 21>    H        2.11699        -4.69567        -1.07999
| 22>    H        2.27701        -3.90083         0.49688
| 23>    H        3.68944        -4.09252        -0.55778
| 24>    H        2.67553        -2.56367        -2.23334
| 25>    H        0.36437        -2.21373        -0.25148
| 26>    H        0.29536        -3.17614        -1.73619
| 27>    H        0.53955        -1.42732        -1.83020
| 28>    H        2.56450        -1.31747         0.56854
| 29>    H        2.71221        -0.41734        -0.92359
| 30>    H        4.81842        -1.43208        -2.50803
| 31>    H        7.25978        -1.38546        -2.35284
| 32>    H        6.97071        -1.37845         1.96183
| 33>    H        4.53782        -1.45448         1.79131
| 34>    H        9.21153        -1.05955        -1.12192
| 35>    H        8.73004         0.16941         1.65252
| 36>    H        8.65524         1.01648         0.10085
| 37>    H       10.19191         0.36892         0.69449
| 38>    H        8.07467        -3.42397         0.60296
| 39> *
| 40> 
| 41>                          ****END OF INPUT****
================================================================================

                       *****************************
                       * Geometry Optimization Run *
                       *****************************

Geometry optimization settings:
Update method            Update   .... BFGS
Choice of coordinates    CoordSys .... Z-matrix Internals
Initial Hessian          InHess   .... Almoef's Model

Convergence Tolerances:
Energy Change            TolE     ....  5.0000e-06 Eh
Max. Gradient            TolMAXG  ....  3.0000e-04 Eh/bohr
RMS Gradient             TolRMSG  ....  1.0000e-04 Eh/bohr
Max. Displacement        TolMAXD  ....  4.0000e-03 bohr
RMS Displacement         TolRMSD  ....  2.0000e-03 bohr
Strict Convergence                ....  False
------------------------------------------------------------------------------
                        ORCA OPTIMIZATION COORDINATE SETUP
------------------------------------------------------------------------------

The optimization will be done in new redundant internal coordinates
Making redundant internal coordinates   ...  (new redundants) done
Evaluating the initial hessian          ...  (Almloef) done
Evaluating the coordinates              ...  done
Calculating the B-matrix                .... done
Calculating the G-matrix                .... done
Diagonalizing the G-matrix              .... done
Small eigenvalue found = 1.029e-02
Small eigenvalue found = 2.005e-02
Small eigenvalue found = 2.489e-02
Small eigenvalue found = 2.954e-02
The first mode is                       ....   79
The number of degrees of freedom        ....   93

    -----------------------------------------------------------------
                    Redundant Internal Coordinates


    -----------------------------------------------------------------
         Definition                    Initial Value    Approx d2E/dq
    -----------------------------------------------------------------
      1. B(C   1,C   0)                  1.5297         0.374011   
      2. B(C   2,C   1)                  1.5327         0.369893   
      3. B(C   3,C   1)                  1.5408         0.359021   
      4. B(C   4,C   3)                  1.5147         0.395104   
      5. B(C   5,C   4)                  1.3987         0.605155   
      6. B(C   6,C   5)                  1.4027         0.596411   
      7. B(C   7,C   6)                  1.4032         0.595119   
      8. B(C   8,C   7)                  1.4015         0.598964   
      9. B(C   9,C   8)                  1.3997         0.602977   
     10. B(C   9,C   4)                  1.3994         0.603615   
     11. B(C  10,C   7)                  1.5299         0.373672   
     12. B(C  11,C  10)                  1.5338         0.368384   
     13. B(C  12,C  10)                  1.5319         0.370947   
     14. B(O  13,C  12)                  1.3528         0.641553   
     15. B(O  14,C  12)                  1.2227         1.034486   
     16. B(H  15,C   0)                  1.0949         0.353657   
     17. B(H  16,C   0)                  1.0952         0.353318   
     18. B(H  17,C   0)                  1.0943         0.354475   
     19. B(H  18,C   1)                  1.0968         0.351269   
     20. B(H  19,C   2)                  1.0958         0.352492   
     21. B(H  20,C   2)                  1.0955         0.352900   
     22. B(H  21,C   2)                  1.0951         0.353428   
     23. B(H  22,C   3)                  1.0984         0.349183   
     24. B(H  23,C   3)                  1.0984         0.349214   
     25. B(H  24,C   5)                  1.0873         0.363694   
     26. B(H  25,C   6)                  1.0882         0.362490   
     27. B(H  26,C   8)                  1.0900         0.360163   
     28. B(H  27,C   9)                  1.0876         0.363298   
     29. B(H  28,C  10)                  1.0957         0.352619   
     30. B(H  29,C  11)                  1.0946         0.354124   
     31. B(H  30,C  11)                  1.0966         0.351516   
     32. B(H  31,C  11)                  1.0951         0.353446   
     33. B(H  32,H  17)                  4.5853         0.000000   
     34. B(H  32,O  13)                  0.9729         0.495863   
     35. A(C   1,C   0,H  15)          110.6714         0.323421   
     36. A(H  15,C   0,H  17)          107.3048         0.289301   
     37. A(C   1,C   0,H  17)          111.2637         0.323544   
     38. A(H  16,C   0,H  17)          108.1626         0.289258   
     39. A(C   1,C   0,H  16)          111.1734         0.323370   
     40. A(H  15,C   0,H  16)          108.1143         0.289153   
     41. A(C   0,C   1,C   3)          111.5548         0.360967   
     42. A(C   2,C   1,H  18)          107.6206         0.322476   
     43. A(C   2,C   1,C   3)          110.2287         0.360286   
     44. A(C   3,C   1,H  18)          109.5122         0.320905   
     45. A(C   0,C   1,H  18)          108.2276         0.323062   
     46. A(C   0,C   1,C   2)          109.5934         0.362809   
     47. A(C   1,C   2,H  19)          111.4481         0.322660   
     48. A(H  20,C   2,H  21)          107.6504         0.289070   
     49. A(C   1,C   2,H  20)          110.8694         0.322721   
     50. A(H  19,C   2,H  21)          107.9951         0.289018   
     51. A(C   1,C   2,H  21)          110.9101         0.322800   
     52. A(H  19,C   2,H  20)          107.8122         0.288950   
     53. A(C   1,C   3,H  23)          109.7344         0.320597   
     54. A(C   4,C   3,H  22)          109.3873         0.325667   
     55. A(H  22,C   3,H  23)          105.5217         0.288050   
     56. A(C   1,C   3,C   4)          115.1513         0.364365   
     57. A(C   1,C   3,H  22)          108.9145         0.320593   
     58. A(C   4,C   3,H  23)          107.6955         0.325672   
     59. A(C   5,C   4,C   9)          118.5556         0.430104   
     60. A(C   3,C   4,C   5)          121.5186         0.398906   
     61. A(C   3,C   4,C   9)          119.8764         0.398727   
     62. A(C   4,C   5,C   6)          120.6641         0.429179   
     63. A(C   6,C   5,H  24)          118.9509         0.351191   
     64. A(C   4,C   5,H  24)          120.3517         0.352056   
     65. A(C   5,C   6,C   7)          120.8232         0.427894   
     66. A(C   7,C   6,H  25)          120.7172         0.350866   
     67. A(C   5,C   6,H  25)          118.4102         0.350994   
     68. A(C   8,C   7,C  10)          121.4312         0.394307   
     69. A(C   6,C   7,C  10)          120.2006         0.393863   
     70. A(C   6,C   7,C   8)          118.1931         0.428221   
     71. A(C   9,C   8,H  26)          118.2085         0.351262   
     72. A(C   7,C   8,C   9)          120.8652         0.429230   
     73. A(C   7,C   8,H  26)          120.8754         0.350866   
     74. A(C   4,C   9,C   8)          120.7925         0.429826   
     75. A(C   4,C   9,H  27)          120.3086         0.351839   
     76. A(C   8,C   9,H  27)          118.8711         0.351776   
     77. A(C   7,C  10,C  11)          109.3510         0.362500   
     78. A(C  12,C  10,H  28)          104.7290         0.322829   
     79. A(C  11,C  10,H  28)          108.0082         0.322463   
     80. A(C   7,C  10,H  28)          107.6751         0.323217   
     81. A(C  11,C  10,C  12)          109.1336         0.362047   
     82. A(C   7,C  10,C  12)          117.4991         0.362930   
     83. A(H  30,C  11,H  31)          107.7316         0.288895   
     84. A(H  29,C  11,H  31)          106.9140         0.289229   
     85. A(C  10,C  11,H  31)          111.4512         0.322587   
     86. A(H  29,C  11,H  30)          107.7115         0.288981   
     87. A(C  10,C  11,H  30)          110.8175         0.322297   
     88. A(C  10,C  11,H  29)          111.9986         0.322688   
     89. A(O  13,C  12,O  14)          120.9552         0.473067   
     90. A(C  10,C  12,O  14)          122.5022         0.431093   
     91. A(C  10,C  12,O  13)          116.5226         0.396030   
     92. A(C  12,O  13,H  32)          115.1932         0.369273   
     93. D(H  18,C   1,C   0,H  16)    179.3418         0.011168   
     94. D(H  18,C   1,C   0,H  17)     58.7154         0.011168   
     95. D(C   2,C   1,C   0,H  16)    -63.5601         0.011168   
     96. D(C   3,C   1,C   0,H  15)    178.9652         0.011168   
     97. D(C   2,C   1,C   0,H  17)    175.8135         0.011168   
     98. D(C   2,C   1,C   0,H  15)     56.6060         0.011168   
     99. D(C   3,C   1,C   0,H  16)     58.7991         0.011168   
    100. D(C   3,C   1,C   0,H  17)    -61.8273         0.011168   
    101. D(H  18,C   1,C   0,H  15)    -60.4921         0.011168   
    102. D(H  19,C   2,C   1,C   3)    -56.5157         0.010938   
    103. D(H  19,C   2,C   1,H  18)   -175.8909         0.010938   
    104. D(H  21,C   2,C   1,C   0)   -173.0102         0.010938   
    105. D(H  20,C   2,C   1,C   3)   -176.6159         0.010938   
    106. D(H  20,C   2,C   1,H  18)     64.0088         0.010938   
    107. D(H  21,C   2,C   1,H  18)    -55.5315         0.010938   
    108. D(H  21,C   2,C   1,C   3)     63.8437         0.010938   
    109. D(H  19,C   2,C   1,C   0)     66.6304         0.010938   
    110. D(H  20,C   2,C   1,C   0)    -53.4698         0.010938   
    111. D(H  23,C   3,C   1,C   2)    -56.2146         0.010345   
    112. D(H  23,C   3,C   1,C   0)   -178.2081         0.010345   
    113. D(H  22,C   3,C   1,H  18)    177.0573         0.010345   
    114. D(H  22,C   3,C   1,C   2)     58.8380         0.010345   
    115. D(H  22,C   3,C   1,C   0)    -63.1555         0.010345   
    116. D(C   4,C   3,C   1,H  18)    -59.6758         0.010345   
    117. D(C   4,C   3,C   1,C   2)   -177.8951         0.010345   
    118. D(H  23,C   3,C   1,H  18)     62.0047         0.010345   
    119. D(C   4,C   3,C   1,C   0)     60.1114         0.010345   
    120. D(C   9,C   4,C   3,C   1)   -122.0794         0.011599   
    121. D(C   5,C   4,C   3,H  23)    -62.2631         0.011599   
    122. D(C   5,C   4,C   3,H  22)   -176.4714         0.011599   
    123. D(C   5,C   4,C   3,C   1)     60.5132         0.011599   
    124. D(C   9,C   4,C   3,H  23)    115.1444         0.011599   
    125. D(C   9,C   4,C   3,H  22)      0.9360         0.011599   
    126. D(H  24,C   5,C   4,C   9)   -179.8374         0.025269   
    127. D(H  24,C   5,C   4,C   3)     -2.3967         0.025269   
    128. D(C   6,C   5,C   4,C   9)     -1.9596         0.025269   
    129. D(C   6,C   5,C   4,C   3)    175.4811         0.025269   
    130. D(H  25,C   6,C   5,H  24)     -0.3736         0.024506   
    131. D(H  25,C   6,C   5,C   4)   -178.2807         0.024506   
    132. D(C   7,C   6,C   5,C   4)     -0.8188         0.024506   
    133. D(C   7,C   6,C   5,H  24)    177.0883         0.024506   
    134. D(C  10,C   7,C   6,H  25)      5.3304         0.024394   
    135. D(C  10,C   7,C   6,C   5)   -172.0728         0.024394   
    136. D(C   8,C   7,C   6,H  25)   -179.4092         0.024394   
    137. D(C   8,C   7,C   6,C   5)      3.1876         0.024394   
    138. D(H  26,C   8,C   7,C  10)     -4.9772         0.024727   
    139. D(H  26,C   8,C   7,C   6)    179.8237         0.024727   
    140. D(C   9,C   8,C   7,C  10)    172.3797         0.024727   
    141. D(C   9,C   8,C   7,C   6)     -2.8195         0.024727   
    142. D(H  27,C   9,C   8,H  26)     -0.5888         0.025078   
    143. D(H  27,C   9,C   8,C   7)   -178.0146         0.025078   
    144. D(C   4,C   9,C   8,H  26)    177.4987         0.025078   
    145. D(C   4,C   9,C   8,C   7)      0.0730         0.025078   
    146. D(H  27,C   9,C   4,C   5)   -179.6083         0.025134   
    147. D(H  27,C   9,C   4,C   3)      2.9078         0.025134   
    148. D(C   8,C   9,C   4,C   5)      2.3316         0.025134   
    149. D(C   8,C   9,C   4,C   3)   -175.1523         0.025134   
    150. D(H  28,C  10,C   7,C   6)     -0.0866         0.010442   
    151. D(C  12,C  10,C   7,C   8)     66.9884         0.010442   
    152. D(C  12,C  10,C   7,C   6)   -117.9076         0.010442   
    153. D(C  11,C  10,C   7,C   8)    -58.0735         0.010442   
    154. D(H  28,C  10,C   7,C   8)   -175.1906         0.010442   
    155. D(C  11,C  10,C   7,C   6)    117.0305         0.010442   
    156. D(H  31,C  11,C  10,H  28)    -62.2110         0.010854   
    157. D(H  31,C  11,C  10,C   7)   -179.1179         0.010854   
    158. D(H  30,C  11,C  10,H  28)     57.7543         0.010854   
    159. D(H  30,C  11,C  10,C  12)    171.0676         0.010854   
    160. D(H  30,C  11,C  10,C   7)    -59.1525         0.010854   
    161. D(H  29,C  11,C  10,H  28)    178.0614         0.010854   
    162. D(H  31,C  11,C  10,C  12)     51.1023         0.010854   
    163. D(H  29,C  11,C  10,C  12)    -68.6253         0.010854   
    164. D(H  29,C  11,C  10,C   7)     61.1546         0.010854   
    165. D(O  14,C  12,C  10,H  28)     66.4026         0.010301   
    166. D(O  14,C  12,C  10,C  11)    -49.0366         0.010301   
    167. D(O  14,C  12,C  10,C   7)   -174.2064         0.010301   
    168. D(O  13,C  12,C  10,H  28)   -111.9823         0.010301   
    169. D(O  13,C  12,C  10,C  11)    132.5785         0.010301   
    170. D(O  13,C  12,C  10,C   7)      7.4087         0.010301   
    171. D(H  32,O  13,C  12,O  14)   -178.0534         0.030354   
    172. D(H  32,O  13,C  12,C  10)      0.3582         0.030354   
    -----------------------------------------------------------------

Number of atoms                         .... 33
Number of degrees of freedom            .... 172

         *************************************************************
         *                GEOMETRY OPTIMIZATION CYCLE   1            *
         *************************************************************
---------------------------------
CARTESIAN COORDINATES (ANGSTROEM)
---------------------------------
  C      2.615810   -3.881330   -0.544390
  C      2.307120   -2.534530   -1.200720
  C      0.789780   -2.325080   -1.255190
  C      2.978920   -1.370430   -0.447280
  C      4.490140   -1.439920   -0.370820
  C      5.281320   -1.441820   -1.524240
  C      6.680610   -1.411590   -1.431940
  C      7.317870   -1.361580   -0.182740
  C      6.521380   -1.411350    0.969350
  C      5.125330   -1.449260    0.876070
  C      8.830310   -1.146890   -0.098380
  C      9.116510    0.173090    0.628470
  C      9.668650   -2.261290    0.535720
  O      9.020710   -3.411850    0.829730
  O     10.867830   -2.143950    0.743800
  H      2.116990   -4.695670   -1.079990
  H      2.277010   -3.900830    0.496880
  H      3.689440   -4.092520   -0.557780
  H      2.675530   -2.563670   -2.233340
  H      0.364370   -2.213730   -0.251480
  H      0.295360   -3.176140   -1.736190
  H      0.539550   -1.427320   -1.830200
  H      2.564500   -1.317470    0.568540
  H      2.712210   -0.417340   -0.923590
  H      4.818420   -1.432080   -2.508030
  H      7.259780   -1.385460   -2.352840
  H      6.970710   -1.378450    1.961830
  H      4.537820   -1.454480    1.791310
  H      9.211530   -1.059550   -1.121920
  H      8.730040    0.169410    1.652520
  H      8.655240    1.016480    0.100850
  H     10.191910    0.368920    0.694490
  H      8.074670   -3.423970    0.602960

----------------------------
CARTESIAN COORDINATES (A.U.)
----------------------------
  NO LB      ZA    FRAG     MASS         X           Y           Z
   0 C     6.0000    0    12.011    4.943165   -7.334651   -1.028748
   1 C     6.0000    0    12.011    4.359825   -4.789568   -2.269032
   2 C     6.0000    0    12.011    1.492468   -4.393764   -2.371965
   3 C     6.0000    0    12.011    5.629343   -2.589737   -0.845237
   4 C     6.0000    0    12.011    8.485135   -2.721054   -0.700748
   5 C     6.0000    0    12.011    9.980248   -2.724645   -2.880396
   6 C     6.0000    0    12.011   12.624523   -2.667519   -2.705974
   7 C     6.0000    0    12.011   13.828770   -2.573013   -0.345329
   8 C     6.0000    0    12.011   12.323622   -2.667065    1.831806
   9 C     6.0000    0    12.011    9.685470   -2.738704    1.655532
  10 C     6.0000    0    12.011   16.686868   -2.167308   -0.185911
  11 C     6.0000    0    12.011   17.227707    0.327093    1.187636
  12 C     6.0000    0    12.011   18.271101   -4.273219    1.012364
  13 O     8.0000    0    15.999   17.046671   -6.447462    1.567962
  14 O     8.0000    0    15.999   20.537222   -4.051478    1.405578
  15 H     1.0000    0     1.008    4.000531   -8.873530   -2.040885
  16 H     1.0000    0     1.008    4.302925   -7.371500    0.938967
  17 H     1.0000    0     1.008    6.972031   -7.733742   -1.054051
  18 H     1.0000    0     1.008    5.056019   -4.844634   -4.220401
  19 H     1.0000    0     1.008    0.688560   -4.183343   -0.475228
  20 H     1.0000    0     1.008    0.558150   -6.002035   -3.280924
  21 H     1.0000    0     1.008    1.019602   -2.697244   -3.458577
  22 H     1.0000    0     1.008    4.846203   -2.489657    1.074385
  23 H     1.0000    0     1.008    5.125334   -0.788658   -1.745332
  24 H     1.0000    0     1.008    9.105494   -2.706239   -4.739490
  25 H     1.0000    0     1.008   13.718996   -2.618140   -4.446223
  26 H     1.0000    0     1.008   13.172733   -2.604893    3.707321
  27 H     1.0000    0     1.008    8.575237   -2.748569    3.385085
  28 H     1.0000    0     1.008   17.407269   -2.002259   -2.120122
  29 H     1.0000    0     1.008   16.497385    0.320139    3.122810
  30 H     1.0000    0     1.008   16.356033    1.920869    0.190579
  31 H     1.0000    0     1.008   19.259919    0.697158    1.312396
  32 H     1.0000    0     1.008   15.258915   -6.470366    1.139429

--------------------------------
INTERNAL COORDINATES (ANGSTROEM)
--------------------------------
 C      0   0   0     0.000000000000     0.00000000     0.00000000
 C      1   0   0     1.529682589624     0.00000000     0.00000000
 C      2   1   0     1.532695977355   109.59341549     0.00000000
 C      2   1   3     1.540816628804   111.55481981   122.35918797
 C      4   2   1     1.514747794222   115.15131860    60.11143715
 C      5   4   2     1.398694784004   121.51860798    60.51316398
 C      6   5   4     1.402656639025   120.66413570   175.48105432
 C      7   6   5     1.403246930408   120.82318462   359.18122066
 C      8   7   6     1.401493753500   118.19314150     3.18761122
 C      5   4   2     1.399388524964   119.87640906   237.92060491
 C      8   7   6     1.529929135385   120.20058868   187.92720035
 C     11   8   7     1.533808515722   109.35104381   117.03053480
 C     11   8   7     1.531921710010   117.49906976   242.09236890
 O     13  11   8     1.352795785512   116.52260355     7.40872184
 O     13  11   8     1.222742260004   122.50217958   185.79359428
 H      1   2   3     1.094914785725   110.67136374    56.60600833
 H      1   2   3     1.095175284098   111.17344974   296.43990475
 H      1   2   3     1.094286016131   111.26368189   175.81354748
 H      2   1   3     1.096758465707   108.22758855   242.90188853
 H      3   2   1     1.095813056456   111.44813862    66.63037874
 H      3   2   1     1.095497722499   110.86941268   306.53015373
 H      3   2   1     1.095091124336   110.91010960   186.98978661
 H      4   2   1     1.098380157505   108.91446384   296.84452818
 H      4   2   1     1.098356038951   109.73441700   181.79194535
 H      6   5   4     1.087296666830   120.35166311   357.60330149
 H      7   6   5     1.088199189395   118.41020754   181.71931509
 H      9   8   7     1.089952480294   120.87535404   179.82366336
 H     10   5   4     1.087593447066   120.30863789     2.90783895
 H     11   8   7     1.095714878789   107.67513346   359.91339335
 H     12  11   8     1.094555163434   111.99859048    61.15456207
 H     12  11   8     1.096567175051   110.81745290   300.84749250
 H     12  11   8     1.095076796074   111.45118655   180.88214827
 H     14  13  11     0.972914800432   115.19315563     0.35819214

---------------------------
INTERNAL COORDINATES (A.U.)
---------------------------
 C      0   0   0     0.000000000000     0.00000000     0.00000000
 C      1   0   0     2.890681166218     0.00000000     0.00000000
 C      2   1   0     2.896375643764   109.59341549     0.00000000
 C      2   1   3     2.911721451032   111.55481981   122.35918797
 C      4   2   1     2.862458493041   115.15131860    60.11143715
 C      5   4   2     2.643150086712   121.51860798    60.51316398
 C      6   5   4     2.650636907683   120.66413570   175.48105432
 C      7   6   5     2.651752396737   120.82318462   359.18122066
 C      8   7   6     2.648439372517   118.19314150     3.18761122
 C      5   4   2     2.644461067133   119.87640906   237.92060491
 C      8   7   6     2.891147070185   120.20058868   187.92720035
 C     11   8   7     2.898478036590   109.35104381   117.03053480
 C     11   8   7     2.894912490527   117.49906976   242.09236890
 O     13  11   8     2.556413549741   116.52260355     7.40872184
 O     13  11   8     2.310648003780   122.50217958   185.79359428
 H      1   2   3     2.069089085002   110.67136374    56.60600833
 H      1   2   3     2.069581355585   111.17344974   296.43990475
 H      1   2   3     2.067900882667   111.26368189   175.81354748
 H      2   1   3     2.072573135246   108.22758855   242.90188853
 H      3   2   1     2.070786570678   111.44813862    66.63037874
 H      3   2   1     2.070190675857   110.86941268   306.53015373
 H      3   2   1     2.069422316683   110.91010960   186.98978661
 H      4   2   1     2.075637688617   108.91446384   296.84452818
 H      4   2   1     2.075592111156   109.73441700   181.79194535
 H      6   5   4     2.054692926634   120.35166311   357.60330149
 H      7   6   5     2.056398447112   118.41020754   181.71931509
 H      9   8   7     2.059711686745   120.87535404   179.82366336
 H     10   5   4     2.055253760001   120.30863789     2.90783895
 H     11   8   7     2.070601041774   107.67513346   359.91339335
 H     12  11   8     2.068409497360   111.99859048    61.15456207
 H     12  11   8     2.072211648295   110.81745290   300.84749250
 H     12  11   8     2.069395240192   111.45118655   180.88214827
 H     14  13  11     1.838542524455   115.19315563     0.35819214

---------------------
BASIS SET INFORMATION
---------------------
There are 3 groups of distinct atoms

 Group   1 Type C   : 6s3p contracted to 2s1p pattern {33/3}
 Group   2 Type O   : 6s3p contracted to 2s1p pattern {33/3}
 Group   3 Type H   : 3s contracted to 1s pattern {3}

Atom   0C    basis set group =>   1
Atom   1C    basis set group =>   1
Atom   2C    basis set group =>   1
Atom   3C    basis set group =>   1
Atom   4C    basis set group =>   1
Atom   5C    basis set group =>   1
Atom   6C    basis set group =>   1
Atom   7C    basis set group =>   1
Atom   8C    basis set group =>   1
Atom   9C    basis set group =>   1
Atom  10C    basis set group =>   1
Atom  11C    basis set group =>   1
Atom  12C    basis set group =>   1
Atom  13O    basis set group =>   2
Atom  14O    basis set group =>   2
Atom  15H    basis set group =>   3
Atom  16H    basis set group =>   3
Atom  17H    basis set group =>   3
Atom  18H    basis set group =>   3
Atom  19H    basis set group =>   3
Atom  20H    basis set group =>   3
Atom  21H    basis set group =>   3
Atom  22H    basis set group =>   3
Atom  23H    basis set group =>   3
Atom  24H    basis set group =>   3
Atom  25H    basis set group =>   3
Atom  26H    basis set group =>   3
Atom  27H    basis set group =>   3
Atom  28H    basis set group =>   3
Atom  29H    basis set group =>   3
Atom  30H    basis set group =>   3
Atom  31H    basis set group =>   3
Atom  32H    basis set group =>   3
---------------------------------
AUXILIARY/J BASIS SET INFORMATION
---------------------------------
There are 3 groups of distinct atoms

 Group   1 Type C   : 12s5p4d2f1g contracted to 6s4p3d1f1g pattern {711111/2111/211/2/1}
 Group   2 Type O   : 12s5p4d2f1g contracted to 6s4p3d1f1g pattern {711111/2111/211/2/1}
 Group   3 Type H   : 5s2p1d contracted to 3s1p1d pattern {311/2/1}

Atom   0C    basis set group =>   1
Atom   1C    basis set group =>   1
Atom   2C    basis set group =>   1
Atom   3C    basis set group =>   1
Atom   4C    basis set group =>   1
Atom   5C    basis set group =>   1
Atom   6C    basis set group =>   1
Atom   7C    basis set group =>   1
Atom   8C    basis set group =>   1
Atom   9C    basis set group =>   1
Atom  10C    basis set group =>   1
Atom  11C    basis set group =>   1
Atom  12C    basis set group =>   1
Atom  13O    basis set group =>   2
Atom  14O    basis set group =>   2
Atom  15H    basis set group =>   3
Atom  16H    basis set group =>   3
Atom  17H    basis set group =>   3
Atom  18H    basis set group =>   3
Atom  19H    basis set group =>   3
Atom  20H    basis set group =>   3
Atom  21H    basis set group =>   3
Atom  22H    basis set group =>   3
Atom  23H    basis set group =>   3
Atom  24H    basis set group =>   3
Atom  25H    basis set group =>   3
Atom  26H    basis set group =>   3
Atom  27H    basis set group =>   3
Atom  28H    basis set group =>   3
Atom  29H    basis set group =>   3
Atom  30H    basis set group =>   3
Atom  31H    basis set group =>   3
Atom  32H    basis set group =>   3
------------------------------------------------------------------------------
                           ORCA GTO INTEGRAL CALCULATION
                           -- RI-GTO INTEGRALS CHOSEN --
------------------------------------------------------------------------------
------------------------------------------------------------------------------
                   ___                                                        
                  /   \      - P O W E R E D   B Y -                         
                 /     \                                                     
                 |  |  |   _    _      __       _____    __    __             
                 |  |  |  | |  | |    /  \     |  _  \  |  |  /  |          
                  \  \/   | |  | |   /    \    | | | |  |  | /  /          
                 / \  \   | |__| |  /  /\  \   | |_| |  |  |/  /          
                |  |  |   |  __  | /  /__\  \  |    /   |      \           
                |  |  |   | |  | | |   __   |  |    \   |  |\   \          
                \     /   | |  | | |  |  |  |  | |\  \  |  | \   \       
                 \___/    |_|  |_| |__|  |__|  |_| \__\ |__|  \__/        
                                                                              
                      - O R C A' S   B I G   F R I E N D -                    
                                      &                                       
                       - I N T E G R A L  F E E D E R -                       
                                                                              
 v1 FN, 2020, v2 2021                                                         
------------------------------------------------------------------------------


Reading SHARK input file Ibuprofeno\Ibuprofeno_B3LYP_STO-3G\Ibuprofeno_B3LYP_STO-3G.orcainp.SHARKINP.tmp ... ok
----------------------
SHARK INTEGRAL PACKAGE
----------------------

Number of atoms                             ...     33
Number of basis functions                   ...     93
Number of shells                            ...     63
Maximum angular momentum                    ...      1
Integral batch strategy                     ... SHARK/LIBINT Hybrid
RI-J (if used) integral strategy            ... SPLIT-RIJ (Revised 2003 algorithm where possible)
Printlevel                                  ...      1
Contraction scheme used                     ... SEGMENTED contraction
Coulomb Range Separation                    ... NOT USED
Exchange Range Separation                   ... NOT USED
Finite Nucleus Model                        ... NOT USED
Auxiliary Coulomb fitting basis             ... AVAILABLE
   # of basis functions in Aux-J            ...    933
   # of shells in Aux-J                     ...    315
   Maximum angular momentum in Aux-J        ...      4
Auxiliary J/K fitting basis                 ... NOT available
Auxiliary Correlation fitting basis         ... NOT available
Auxiliary 'external' fitting basis          ... NOT available
Integral threshold                          ...     2.500000e-11
Primitive cut-off                           ...     2.500000e-12
Primitive pair pre-selection threshold      ...     2.500000e-12

Calculating pre-screening integrals         ... done (  0.0 sec) Dimension = 63
Organizing shell pair data                  ... done (  0.0 sec)
Shell pair information
Total number of shell pairs                 ...      2016
Shell pairs after pre-screening             ...      1674
Total number of primitive shell pairs       ...     18144
Primitive shell pairs kept                  ...      9884
          la=0 lb=0:    928 shell pairs
          la=1 lb=0:    633 shell pairs
          la=1 lb=1:    113 shell pairs

Calculating one electron integrals          ... done (  0.0 sec)
Calculating RI/J V-Matrix + Cholesky decomp.... done (  0.0 sec)
Calculating Nuclear repulsion               ... done (  0.0 sec) ENN=    964.016479294922 Eh

SHARK setup successfully completed in   0.1 seconds

Maximum memory used throughout the entire GTOINT-calculation: 19.0 MB
-------------------------------------------------------------------------------
                                 ORCA SCF
-------------------------------------------------------------------------------

------------
SCF SETTINGS
------------
Hamiltonian:
 Density Functional     Method          .... DFT(GTOs)
 Exchange Functional    Exchange        .... B88
   X-Alpha parameter    XAlpha          ....  0.666667
   Becke's b parameter  XBeta           ....  0.004200
 Correlation Functional Correlation     .... LYP
 LDA part of GGA corr.  LDAOpt          .... VWN-5
 Gradients option       PostSCFGGA      .... off
 Hybrid DFT is turned on
   Fraction HF Exchange ScalHFX         ....  0.200000
   Scaling of DF-GGA-X  ScalDFX         ....  0.720000
   Scaling of DF-GGA-C  ScalDFC         ....  0.810000
   Scaling of DF-LDA-C  ScalLDAC        ....  1.000000
   Perturbative correction              ....  0.000000
   Density functional embedding theory  .... OFF
   NL short-range parameter             ....  4.800000
 RI-approximation to the Coulomb term is turned on
   Number of AuxJ basis functions       .... 933
   RIJ-COSX (HFX calculated with COS-X)).... on


General Settings:
 Integral files         IntName         .... Ibuprofeno\Ibuprofeno_B3LYP_STO-3G\Ibuprofeno_B3LYP_STO-3G.orcainp
 Hartree-Fock type      HFTyp           .... RHF
 Total Charge           Charge          ....    0
 Multiplicity           Mult            ....    1
 Number of Electrons    NEL             ....  112
 Basis Dimension        Dim             ....   93
 Nuclear Repulsion      ENuc            ....    964.0164792949 Eh

Convergence Acceleration:
 DIIS                   CNVDIIS         .... on
   Start iteration      DIISMaxIt       ....    12
   Startup error        DIISStart       ....  0.200000
   # of expansion vecs  DIISMaxEq       ....     5
   Bias factor          DIISBfac        ....   1.050
   Max. coefficient     DIISMaxC        ....  10.000
 Trust-Rad. Augm. Hess. CNVTRAH         .... auto
   Auto Start mean grad. ratio tolernc. ....  1.125000
   Auto Start start iteration           ....    20
   Auto Start num. interpolation iter.  ....    10
   Max. Number of Micro iterations      ....    16
   Max. Number of Macro iterations      .... Maxiter - #DIIS iter
   Number of Davidson start vectors     ....     2
   Converg. threshold I  (grad. norm)   ....   1.000e-05
   Converg. threshold II (energy diff.) ....   1.000e-08
   Grad. Scal. Fac. for Micro threshold ....   0.100
   Minimum threshold for Micro iter.    ....   0.010
   NR start threshold (gradient norm)   ....   0.001
   Initial trust radius                 ....   0.400
   Minimum AH scaling param. (alpha)    ....   1.000
   Maximum AH scaling param. (alpha)    .... 1000.000
   Orbital update algorithm             .... Taylor
   White noise on init. David. guess    .... on
   Maximum white noise                  ....   0.010
   Quad. conv. algorithm                .... NR
 SOSCF                  CNVSOSCF        .... on
   Start iteration      SOSCFMaxIt      ....   150
   Startup grad/error   SOSCFStart      ....  0.003300
 Level Shifting         CNVShift        .... on
   Level shift para.    LevelShift      ....    0.2500
   Turn off err/grad.   ShiftErr        ....    0.0010
 Zerner damping         CNVZerner       .... off
 Static damping         CNVDamp         .... on
   Fraction old density DampFac         ....    0.7000
   Max. Damping (<1)    DampMax         ....    0.9800
   Min. Damping (>=0)   DampMin         ....    0.0000
   Turn off err/grad.   DampErr         ....    0.1000
 Fernandez-Rico         CNVRico         .... off

SCF Procedure:
 Maximum # iterations   MaxIter         ....   125
 SCF integral mode      SCFMode         .... Direct
   Integral package                     .... SHARK and LIBINT hybrid scheme
 Reset frequency        DirectResetFreq ....    20
 Integral Threshold     Thresh          ....  2.500e-11 Eh
 Primitive CutOff       TCut            ....  2.500e-12 Eh

Convergence Tolerance:
 Convergence Check Mode ConvCheckMode   .... Total+1el-Energy
 Convergence forced     ConvForced      .... 0
 Energy Change          TolE            ....  1.000e-08 Eh
 1-El. energy change                    ....  1.000e-05 Eh
 Orbital Gradient       TolG            ....  1.000e-05
 Orbital Rotation angle TolX            ....  1.000e-05
 DIIS Error             TolErr          ....  5.000e-07


Diagonalization of the overlap matrix:
Smallest eigenvalue                        ... 1.743e-01
Time for diagonalization                   ...    0.001 sec
Threshold for overlap eigenvalues          ... 1.000e-08
Number of eigenvalues below threshold      ... 0
Time for construction of square roots      ...    0.000 sec
Total time needed                          ...    0.001 sec

Time for model grid setup =    0.188 sec

------------------------------
INITIAL GUESS: MODEL POTENTIAL
------------------------------
Loading Hartree-Fock densities                     ... done
Calculating cut-offs                               ... done
Initializing the effective Hamiltonian             ... done
Setting up the integral package (SHARK)            ... done
Starting the Coulomb interaction                   ... done (   0.1 sec)
Reading the grid                                   ... done
Mapping shells                                     ... done
Starting the XC term evaluation                    ... done (   0.1 sec)
  promolecular density results
     # of electrons  =    111.986009088
     EX              =    -88.576688209
     EC              =     -3.733776761
     EX+EC           =    -92.310464970
Transforming the Hamiltonian                       ... done (   0.0 sec)
Diagonalizing the Hamiltonian                      ... done (   0.0 sec)
Back transforming the eigenvectors                 ... done (   0.0 sec)
Now organizing SCF variables                       ... done
                      ------------------
                      INITIAL GUESS DONE (   0.3 sec)
                      ------------------
-------------------
DFT GRID GENERATION
-------------------

General Integration Accuracy     IntAcc      ... 4.388
Radial Grid Type                 RadialGrid  ... OptM3 with GC (2021)
Angular Grid (max. ang.)         AngularGrid ... 4 (Lebedev-302)
Angular grid pruning method      GridPruning ... 4 (adaptive)
Weight generation scheme         WeightScheme... Becke
Basis function cutoff            BFCut       ... 1.0000e-11
Integration weight cutoff        WCut        ... 1.0000e-14
Angular grids for H and He will be reduced by one unit
Partially contracted basis set               ... off
Rotationally invariant grid construction     ... off

Total number of grid points                  ...   146948
Total number of batches                      ...     2313
Average number of points per batch           ...       63
Average number of grid points per atom       ...     4453
Time for grid setup =    0.761 sec

--------------------
COSX GRID GENERATION
--------------------

GRIDX 1
-------
General Integration Accuracy     IntAcc      ... 3.816
Radial Grid Type                 RadialGrid  ... OptM3 with GC (2021)
Angular Grid (max. ang.)         AngularGrid ... 1 (Lebedev-50)
Angular grid pruning method      GridPruning ... 4 (adaptive)
Weight generation scheme         WeightScheme... Becke
Basis function cutoff            BFCut       ... 1.0000e-11
Integration weight cutoff        WCut        ... 1.0000e-14
Angular grids for H and He will be reduced by one unit
Partially contracted basis set               ... on
Rotationally invariant grid construction     ... off

Total number of grid points                  ...    18771
Total number of batches                      ...      310
Average number of points per batch           ...       60
Average number of grid points per atom       ...      569
UseSFitting                                  ... on

GRIDX 2
-------
General Integration Accuracy     IntAcc      ... 4.020
Radial Grid Type                 RadialGrid  ... OptM3 with GC (2021)
Angular Grid (max. ang.)         AngularGrid ... 2 (Lebedev-110)
Angular grid pruning method      GridPruning ... 4 (adaptive)
Weight generation scheme         WeightScheme... Becke
Basis function cutoff            BFCut       ... 1.0000e-11
Integration weight cutoff        WCut        ... 1.0000e-14
Angular grids for H and He will be reduced by one unit
Partially contracted basis set               ... on
Rotationally invariant grid construction     ... off

Total number of grid points                  ...    39795
Total number of batches                      ...      640
Average number of points per batch           ...       62
Average number of grid points per atom       ...     1206
UseSFitting                                  ... on

GRIDX 3
-------
General Integration Accuracy     IntAcc      ... 4.338
Radial Grid Type                 RadialGrid  ... OptM3 with GC (2021)
Angular Grid (max. ang.)         AngularGrid ... 3 (Lebedev-194)
Angular grid pruning method      GridPruning ... 4 (adaptive)
Weight generation scheme         WeightScheme... Becke
Basis function cutoff            BFCut       ... 1.0000e-11
Integration weight cutoff        WCut        ... 1.0000e-14
Angular grids for H and He will be reduced by one unit
Partially contracted basis set               ... on
Rotationally invariant grid construction     ... off

Total number of grid points                  ...    86720
Total number of batches                      ...     1371
Average number of points per batch           ...       63
Average number of grid points per atom       ...     2628
UseSFitting                                  ... on

Time for X-Grid setup             =    0.748 sec


--------------------
CPCM SOLVATION MODEL
--------------------
CPCM parameters:
  Epsilon                                         ...      80.4000
  Refrac                                          ...       1.3300
  Rsolv                                           ...       1.3000
  Surface type                                    ... GAUSSIAN VDW
  Epsilon function type                           ...         CPCM
Radii:
 Radius for C  used is    3.8550 Bohr (=   2.0400 Ang.)
 Radius for O  used is    3.4469 Bohr (=   1.8240 Ang.)
 Radius for H  used is    2.4944 Bohr (=   1.3200 Ang.)
Calculating surface                               ...        done! (  0.0s)
GEPOL surface points                              ...         1778
GEPOL Volume                                      ...    1843.4806
GEPOL Surface-area                                ...     989.3229
Calculating surface distance matrix               ...        done! (  0.0s)
Performing Cholesky decomposition & store         ...        done! (  0.1s)
Overall time for CPCM initialization              ...                 0.1s
--------------
SCF ITERATIONS
--------------
ITER       Energy         Delta-E        Max-DP      RMS-DP      [F,P]     Damp
               ***  Starting incremental Fock matrix formation  ***
  0   -647.8873902904   0.000000000000 0.12296638  0.00422214  0.2156553 0.7000
  1   -647.9634882159  -0.076097925469 0.08522598  0.00297219  0.0986148 0.7000
                               ***Turning on DIIS***
  2   -647.9951461748  -0.031657958906 0.10351907  0.00487200  0.0506825 0.0000
  3   -648.0434874472  -0.048341272390 0.07422810  0.00219111  0.0677890 0.0000
  4   -648.0543052532  -0.010817806055 0.01275529  0.00061426  0.0114571 0.0000
                      *** Initiating the SOSCF procedure ***
                           *** Shutting down DIIS ***
                      *** Re-Reading the Fockian *** 
                      *** Removing any level shift *** 
ITER      Energy       Delta-E        Grad      Rot      Max-DP    RMS-DP
  5   -648.05513611  -0.0008308609  0.000498  0.000498  0.002576  0.000108
               *** Restarting incremental Fock matrix formation ***
  6   -648.05517805  -0.0000419367  0.000235  0.000743  0.001347  0.000050
  7   -648.05517824  -0.0000001903  0.000414  0.000616  0.000845  0.000025
  8   -648.05517932  -0.0000010830  0.000118  0.000213  0.000567  0.000014
  9   -648.05517928   0.0000000460  0.000094  0.000079  0.000305  0.000008
 10   -648.05517941  -0.0000001352  0.000008  0.000025  0.000053  0.000002
 11   -648.05517941   0.0000000026  0.000010  0.000016  0.000033  0.000001
                  ***Gradient check signals convergence***
              ***Rediagonalizing the Fockian in SOSCF/NRSCF***

               *****************************************************
               *                     SUCCESS                       *
               *           SCF CONVERGED AFTER  12 CYCLES          *
               *****************************************************

Old exchange energy                            =    -18.104723391 Eh
New exchange energy                            =    -18.104574628 Eh
Exchange energy change after final integration =      0.000148763 Eh
Total energy after final integration           =   -648.055030655 Eh
Final COS-X integration done in                =     4.457 sec

----------------
TOTAL SCF ENERGY
----------------

Total Energy       :         -648.05503066 Eh          -17634.47390 eV

Components:
Nuclear Repulsion  :          964.01647929 Eh           26232.22202 eV
Electronic Energy  :        -1612.07150995 Eh          -43866.69593 eV
One Electron Energy:        -2796.38564814 Eh          -76093.52201 eV
Two Electron Energy:         1184.31413819 Eh           32226.82608 eV
Max COSX asymmetry :            0.00000125 Eh               0.00003 eV
CPCM Dielectric    :           -0.00885800 Eh              -0.24104 eV

Virial components:
Potential Energy   :        -1286.12054547 Eh          -34997.11926 eV
Kinetic Energy     :          638.06551482 Eh           17362.64536 eV
Virial Ratio       :            2.01565594


DFT components:
N(Alpha)           :       56.000042072277 electrons
N(Beta)            :       56.000042072277 electrons
N(Total)           :      112.000084144554 electrons
E(X)               :      -71.639853398964 Eh       
E(C)               :       -4.402725707316 Eh       
E(XC)              :      -76.042579106280 Eh       
DFET-embed. en.    :        0.000000000000 Eh       
CPCM Solvation Model Properties:
Surface-charge          :           -0.01409234
Charge-correction       :            0.00002513 Eh               0.00068 eV
Free-energy (cav+disp)  :  This term is not implemented in the current solvation scheme

---------------
SCF CONVERGENCE
---------------

  Last Energy change         ...   -7.5539e-09  Tolerance :   1.0000e-08
  Last MAX-Density change    ...    3.5527e-15  Tolerance :   1.0000e-07
  Last RMS-Density change    ...    1.3349e-16  Tolerance :   5.0000e-09
  Last Orbital Gradient      ...    1.9081e-06  Tolerance :   1.0000e-05
  Last Orbital Rotation      ...    5.5481e-06  Tolerance :   1.0000e-05

             **** THE GBW FILE WAS UPDATED (Ibuprofeno\Ibuprofeno_B3LYP_STO-3G\Ibuprofeno_B3LYP_STO-3G.orcainp.gbw) ****
             **** DENSITY Ibuprofeno\Ibuprofeno_B3LYP_STO-3G\Ibuprofeno_B3LYP_STO-3G.orcainp.scfp WAS UPDATED ****
             **** ENERGY FILE WAS UPDATED (Ibuprofeno\Ibuprofeno_B3LYP_STO-3G\Ibuprofeno_B3LYP_STO-3G.orcainp.en.tmp) ****
             **** THE GBW FILE WAS UPDATED (Ibuprofeno\Ibuprofeno_B3LYP_STO-3G\Ibuprofeno_B3LYP_STO-3G.orcainp.gbw) ****
             **** DENSITY Ibuprofeno\Ibuprofeno_B3LYP_STO-3G\Ibuprofeno_B3LYP_STO-3G.orcainp.scfp WAS UPDATED ****
----------------
ORBITAL ENERGIES
----------------

  NO   OCC          E(Eh)            E(eV) 
   0   2.0000     -18.924037      -514.9492 
   1   2.0000     -18.854147      -513.0474 
   2   2.0000     -10.109266      -275.0871 
   3   2.0000     -10.030263      -272.9373 
   4   2.0000     -10.017044      -272.5776 
   5   2.0000     -10.011301      -272.4214 
   6   2.0000     -10.010123      -272.3893 
   7   2.0000     -10.009084      -272.3610 
   8   2.0000     -10.004867      -272.2463 
   9   2.0000     -10.000187      -272.1189 
  10   2.0000      -9.999864      -272.1101 
  11   2.0000      -9.997817      -272.0544 
  12   2.0000      -9.997640      -272.0496 
  13   2.0000      -9.993181      -271.9283 
  14   2.0000      -9.992424      -271.9077 
  15   2.0000      -1.028780       -27.9945 
  16   2.0000      -0.946977       -25.7685 
  17   2.0000      -0.815782       -22.1986 
  18   2.0000      -0.773641       -21.0518 
  19   2.0000      -0.747882       -20.3509 
  20   2.0000      -0.698801       -19.0153 
  21   2.0000      -0.695633       -18.9291 
  22   2.0000      -0.642676       -17.4881 
  23   2.0000      -0.635286       -17.2870 
  24   2.0000      -0.603607       -16.4250 
  25   2.0000      -0.565528       -15.3888 
  26   2.0000      -0.546072       -14.8594 
  27   2.0000      -0.531868       -14.4729 
  28   2.0000      -0.518233       -14.1019 
  29   2.0000      -0.470435       -12.8012 
  30   2.0000      -0.445576       -12.1247 
  31   2.0000      -0.431120       -11.7314 
  32   2.0000      -0.413706       -11.2575 
  33   2.0000      -0.401990       -10.9387 
  34   2.0000      -0.393988       -10.7209 
  35   2.0000      -0.389986       -10.6121 
  36   2.0000      -0.373984       -10.1766 
  37   2.0000      -0.372037       -10.1236 
  38   2.0000      -0.358739        -9.7618 
  39   2.0000      -0.345591        -9.4040 
  40   2.0000      -0.343021        -9.3341 
  41   2.0000      -0.339499        -9.2382 
  42   2.0000      -0.332407        -9.0453 
  43   2.0000      -0.318137        -8.6570 
  44   2.0000      -0.311452        -8.4750 
  45   2.0000      -0.305056        -8.3010 
  46   2.0000      -0.290541        -7.9060 
  47   2.0000      -0.288225        -7.8430 
  48   2.0000      -0.281243        -7.6530 
  49   2.0000      -0.278098        -7.5674 
  50   2.0000      -0.266678        -7.2567 
  51   2.0000      -0.246874        -6.7178 
  52   2.0000      -0.192631        -5.2417 
  53   2.0000      -0.186449        -5.0735 
  54   2.0000      -0.180939        -4.9236 
  55   2.0000      -0.141932        -3.8622 
  56   0.0000       0.088569         2.4101 
  57   0.0000       0.092089         2.5059 
  58   0.0000       0.124840         3.3971 
  59   0.0000       0.245560         6.6820 
  60   0.0000       0.322744         8.7823 
  61   0.0000       0.332230         9.0404 
  62   0.0000       0.350684         9.5426 
  63   0.0000       0.363782         9.8990 
  64   0.0000       0.369680        10.0595 
  65   0.0000       0.386400        10.5145 
  66   0.0000       0.403067        10.9680 
  67   0.0000       0.410227        11.1628 
  68   0.0000       0.429129        11.6772 
  69   0.0000       0.430746        11.7212 
  70   0.0000       0.446127        12.1397 
  71   0.0000       0.449099        12.2206 
  72   0.0000       0.462439        12.5836 
  73   0.0000       0.464939        12.6516 
  74   0.0000       0.472958        12.8699 
  75   0.0000       0.478015        13.0074 
  76   0.0000       0.478694        13.0259 
  77   0.0000       0.499029        13.5793 
  78   0.0000       0.503298        13.6954 
  79   0.0000       0.505126        13.7452 
  80   0.0000       0.513808        13.9814 
  81   0.0000       0.516377        14.0513 
  82   0.0000       0.520521        14.1641 
  83   0.0000       0.531356        14.4589 
  84   0.0000       0.548488        14.9251 
  85   0.0000       0.559905        15.2358 
  86   0.0000       0.594930        16.1889 
  87   0.0000       0.603277        16.4160 
  88   0.0000       0.612527        16.6677 
  89   0.0000       0.640121        17.4186 
  90   0.0000       0.681069        18.5328 
  91   0.0000       0.774281        21.0692 
  92   0.0000       0.811668        22.0866 

                    ********************************
                    * MULLIKEN POPULATION ANALYSIS *
                    ********************************

-----------------------
MULLIKEN ATOMIC CHARGES
-----------------------
   0 C :   -0.225436
   1 C :   -0.043261
   2 C :   -0.223880
   3 C :   -0.141603
   4 C :   -0.000766
   5 C :   -0.090056
   6 C :   -0.086926
   7 C :   -0.020327
   8 C :   -0.094985
   9 C :   -0.088179
  10 C :   -0.089794
  11 C :   -0.220771
  12 C :    0.241707
  13 O :   -0.266497
  14 O :   -0.251287
  15 H :    0.073448
  16 H :    0.072545
  17 H :    0.073249
  18 H :    0.072990
  19 H :    0.072617
  20 H :    0.073749
  21 H :    0.072583
  22 H :    0.077653
  23 H :    0.080948
  24 H :    0.085095
  25 H :    0.085311
  26 H :    0.085653
  27 H :    0.084553
  28 H :    0.095310
  29 H :    0.080477
  30 H :    0.080810
  31 H :    0.082218
  32 H :    0.252852
Sum of atomic charges:    0.0000000

--------------------------------
MULLIKEN REDUCED ORBITAL CHARGES
--------------------------------
  0 C s       :     3.189227  s :     3.189227
      pz      :     1.021984  p :     3.036209
      px      :     1.031874
      py      :     0.982350
  1 C s       :     3.167091  s :     3.167091
      pz      :     0.992383  p :     2.876170
      px      :     0.947524
      py      :     0.936263
  2 C s       :     3.190453  s :     3.190453
      pz      :     1.033466  p :     3.033427
      px      :     0.967849
      py      :     1.032112
  3 C s       :     3.181774  s :     3.181774
      pz      :     1.022762  p :     2.959829
      px      :     0.942225
      py      :     0.994841
  4 C s       :     3.131117  s :     3.131117
      pz      :     0.951384  p :     2.869649
      px      :     0.941834
      py      :     0.976430
  5 C s       :     3.143048  s :     3.143048
      pz      :     0.982253  p :     2.947009
      px      :     0.956780
      py      :     1.007975
  6 C s       :     3.146290  s :     3.146290
      pz      :     0.971875  p :     2.940637
      px      :     0.964180
      py      :     1.004581
  7 C s       :     3.135413  s :     3.135413
      pz      :     0.952822  p :     2.884914
      px      :     0.927627
      py      :     1.004465
  8 C s       :     3.144902  s :     3.144902
      pz      :     0.979707  p :     2.950083
      px      :     0.961865
      py      :     1.008512
  9 C s       :     3.143771  s :     3.143771
      pz      :     0.974844  p :     2.944408
      px      :     0.961218
      py      :     1.008345
 10 C s       :     3.176529  s :     3.176529
      pz      :     1.014346  p :     2.913265
      px      :     0.935275
      py      :     0.963644
 11 C s       :     3.191612  s :     3.191612
      pz      :     1.020204  p :     3.029158
      px      :     1.039616
      py      :     0.969338
 12 C s       :     3.078162  s :     3.078162
      pz      :     0.965817  p :     2.680131
      px      :     0.844626
      py      :     0.869687
 13 O s       :     3.807917  s :     3.807917
      pz      :     1.725386  p :     4.458580
      px      :     1.245988
      py      :     1.487205
 14 O s       :     3.880428  s :     3.880428
      pz      :     1.353342  p :     4.370859
      px      :     1.277805
      py      :     1.739712
 15 H s       :     0.926552  s :     0.926552
 16 H s       :     0.927455  s :     0.927455
 17 H s       :     0.926751  s :     0.926751
 18 H s       :     0.927010  s :     0.927010
 19 H s       :     0.927383  s :     0.927383
 20 H s       :     0.926251  s :     0.926251
 21 H s       :     0.927417  s :     0.927417
 22 H s       :     0.922347  s :     0.922347
 23 H s       :     0.919052  s :     0.919052
 24 H s       :     0.914905  s :     0.914905
 25 H s       :     0.914689  s :     0.914689
 26 H s       :     0.914347  s :     0.914347
 27 H s       :     0.915447  s :     0.915447
 28 H s       :     0.904690  s :     0.904690
 29 H s       :     0.919523  s :     0.919523
 30 H s       :     0.919190  s :     0.919190
 31 H s       :     0.917782  s :     0.917782
 32 H s       :     0.747148  s :     0.747148


                     *******************************
                     * LOEWDIN POPULATION ANALYSIS *
                     *******************************

----------------------
LOEWDIN ATOMIC CHARGES
----------------------
   0 C :   -0.127485
   1 C :    0.002443
   2 C :   -0.125777
   3 C :   -0.071916
   4 C :    0.007889
   5 C :   -0.055713
   6 C :   -0.052669
   7 C :   -0.013431
   8 C :   -0.059512
   9 C :   -0.054600
  10 C :   -0.052796
  11 C :   -0.118856
  12 C :    0.156764
  13 O :   -0.155764
  14 O :   -0.200003
  15 H :    0.039563
  16 H :    0.038680
  17 H :    0.039261
  18 H :    0.035135
  19 H :    0.038684
  20 H :    0.039807
  21 H :    0.038636
  22 H :    0.041257
  23 H :    0.044548
  24 H :    0.047325
  25 H :    0.047353
  26 H :    0.047937
  27 H :    0.046784
  28 H :    0.055316
  29 H :    0.044786
  30 H :    0.045052
  31 H :    0.046192
  32 H :    0.185110

-------------------------------
LOEWDIN REDUCED ORBITAL CHARGES
-------------------------------
  0 C s       :     3.011673  s :     3.011673
      pz      :     1.045987  p :     3.115813
      px      :     1.053343
      py      :     1.016482
  1 C s       :     3.021419  s :     3.021419
      pz      :     1.016444  p :     2.976139
      px      :     0.984159
      py      :     0.975535
  2 C s       :     3.013045  s :     3.013045
      pz      :     1.054355  p :     3.112733
      px      :     1.005133
      py      :     1.053245
  3 C s       :     3.021343  s :     3.021343
      pz      :     1.045594  p :     3.050573
      px      :     0.983909
      py      :     1.021070
  4 C s       :     3.025463  s :     3.025463
      pz      :     1.004054  p :     2.966648
      px      :     0.985809
      py      :     0.976786
  5 C s       :     3.022289  s :     3.022289
      pz      :     1.017204  p :     3.033424
      px      :     1.007740
      py      :     1.008480
  6 C s       :     3.025600  s :     3.025600
      pz      :     1.009945  p :     3.027069
      px      :     1.011702
      py      :     1.005422
  7 C s       :     3.030605  s :     3.030605
      pz      :     1.004871  p :     2.982826
      px      :     0.973049
      py      :     1.004906
  8 C s       :     3.023727  s :     3.023727
      pz      :     1.014631  p :     3.035786
      px      :     1.011996
      py      :     1.009158
  9 C s       :     3.023225  s :     3.023225
      pz      :     1.012749  p :     3.031375
      px      :     1.009569
      py      :     1.009057
 10 C s       :     3.034493  s :     3.034493
      pz      :     1.037530  p :     3.018303
      px      :     0.976423
      py      :     1.004350
 11 C s       :     3.012756  s :     3.012756
      pz      :     1.043941  p :     3.106099
      px      :     1.059325
      py      :     1.002833
 12 C s       :     3.042168  s :     3.042168
      pz      :     0.972676  p :     2.801069
      px      :     0.916022
      py      :     0.912371
 13 O s       :     3.659708  s :     3.659708
      pz      :     1.727172  p :     4.496056
      px      :     1.260221
      py      :     1.508663
 14 O s       :     3.765760  s :     3.765760
      pz      :     1.357405  p :     4.434243
      px      :     1.330376
      py      :     1.746462
 15 H s       :     0.960437  s :     0.960437
 16 H s       :     0.961320  s :     0.961320
 17 H s       :     0.960739  s :     0.960739
 18 H s       :     0.964865  s :     0.964865
 19 H s       :     0.961316  s :     0.961316
 20 H s       :     0.960193  s :     0.960193
 21 H s       :     0.961364  s :     0.961364
 22 H s       :     0.958743  s :     0.958743
 23 H s       :     0.955452  s :     0.955452
 24 H s       :     0.952675  s :     0.952675
 25 H s       :     0.952647  s :     0.952647
 26 H s       :     0.952063  s :     0.952063
 27 H s       :     0.953216  s :     0.953216
 28 H s       :     0.944684  s :     0.944684
 29 H s       :     0.955214  s :     0.955214
 30 H s       :     0.954948  s :     0.954948
 31 H s       :     0.953808  s :     0.953808
 32 H s       :     0.814890  s :     0.814890


                      *****************************
                      * MAYER POPULATION ANALYSIS *
                      *****************************

  NA   - Mulliken gross atomic population
  ZA   - Total nuclear charge
  QA   - Mulliken gross atomic charge
  VA   - Mayer's total valence
  BVA  - Mayer's bonded valence
  FA   - Mayer's free valence

  ATOM       NA         ZA         QA         VA         BVA        FA
  0 C      6.2254     6.0000    -0.2254     3.9601     3.9601    -0.0000
  1 C      6.0433     6.0000    -0.0433     3.9625     3.9625     0.0000
  2 C      6.2239     6.0000    -0.2239     3.9596     3.9596     0.0000
  3 C      6.1416     6.0000    -0.1416     3.9597     3.9597    -0.0000
  4 C      6.0008     6.0000    -0.0008     3.9760     3.9760     0.0000
  5 C      6.0901     6.0000    -0.0901     3.9719     3.9719     0.0000
  6 C      6.0869     6.0000    -0.0869     3.9707     3.9707    -0.0000
  7 C      6.0203     6.0000    -0.0203     3.9734     3.9734     0.0000
  8 C      6.0950     6.0000    -0.0950     3.9715     3.9715    -0.0000
  9 C      6.0882     6.0000    -0.0882     3.9714     3.9714    -0.0000
 10 C      6.0898     6.0000    -0.0898     3.9610     3.9610     0.0000
 11 C      6.2208     6.0000    -0.2208     3.9542     3.9542    -0.0000
 12 C      5.7583     6.0000     0.2417     3.9142     3.9142    -0.0000
 13 O      8.2665     8.0000    -0.2665     2.2798     2.2798     0.0000
 14 O      8.2513     8.0000    -0.2513     2.2467     2.2467     0.0000
 15 H      0.9266     1.0000     0.0734     0.9946     0.9946     0.0000
 16 H      0.9275     1.0000     0.0725     0.9947     0.9947    -0.0000
 17 H      0.9268     1.0000     0.0732     0.9946     0.9946     0.0000
 18 H      0.9270     1.0000     0.0730     0.9947     0.9947     0.0000
 19 H      0.9274     1.0000     0.0726     0.9947     0.9947    -0.0000
 20 H      0.9263     1.0000     0.0737     0.9946     0.9946     0.0000
 21 H      0.9274     1.0000     0.0726     0.9947     0.9947     0.0000
 22 H      0.9223     1.0000     0.0777     0.9940     0.9940    -0.0000
 23 H      0.9191     1.0000     0.0809     0.9934     0.9934    -0.0000
 24 H      0.9149     1.0000     0.0851     0.9928     0.9928     0.0000
 25 H      0.9147     1.0000     0.0853     0.9927     0.9927    -0.0000
 26 H      0.9143     1.0000     0.0857     0.9927     0.9927     0.0000
 27 H      0.9154     1.0000     0.0846     0.9929     0.9929    -0.0000
 28 H      0.9047     1.0000     0.0953     0.9909     0.9909    -0.0000
 29 H      0.9195     1.0000     0.0805     0.9935     0.9935     0.0000
 30 H      0.9192     1.0000     0.0808     0.9935     0.9935     0.0000
 31 H      0.9178     1.0000     0.0822     0.9932     0.9932     0.0000
 32 H      0.7471     1.0000     0.2529     0.9361     0.9361    -0.0000

  Mayer bond orders larger than 0.100000
B(  0-C ,  1-C ) :   0.9961 B(  0-C , 15-H ) :   0.9777 B(  0-C , 16-H ) :   0.9778 
B(  0-C , 17-H ) :   0.9768 B(  1-C ,  2-C ) :   0.9938 B(  1-C ,  3-C ) :   0.9735 
B(  1-C , 18-H ) :   0.9579 B(  2-C , 19-H ) :   0.9777 B(  2-C , 20-H ) :   0.9774 
B(  2-C , 21-H ) :   0.9783 B(  3-C ,  4-C ) :   0.9962 B(  3-C , 22-H ) :   0.9659 
B(  3-C , 23-H ) :   0.9581 B(  4-C ,  5-C ) :   1.4060 B(  4-C ,  7-C ) :   0.1072 
B(  4-C ,  9-C ) :   1.4078 B(  5-C ,  6-C ) :   1.4398 B(  5-C ,  8-C ) :   0.1123 
B(  5-C , 24-H ) :   0.9611 B(  6-C ,  7-C ) :   1.4011 B(  6-C ,  9-C ) :   0.1115 
B(  6-C , 25-H ) :   0.9610 B(  7-C ,  8-C ) :   1.3990 B(  7-C , 10-C ) :   0.9830 
B(  8-C ,  9-C ) :   1.4364 B(  8-C , 26-H ) :   0.9601 B(  9-C , 27-H ) :   0.9611 
B( 10-C , 11-C ) :   0.9813 B( 10-C , 12-C ) :   0.8970 B( 10-C , 28-H ) :   0.9475 
B( 11-C , 29-H ) :   0.9757 B( 11-C , 30-H ) :   0.9766 B( 11-C , 31-H ) :   0.9735 
B( 12-C , 13-O ) :   1.0892 B( 12-C , 14-O ) :   1.8735 B( 13-O , 14-O ) :   0.2398 
B( 13-O , 32-H ) :   0.8778 

-------
TIMINGS
-------

Total SCF time: 0 days 0 hours 0 min 48 sec 

Total time                  ....      48.127 sec
Sum of individual times     ....      47.963 sec  ( 99.7%)

Fock matrix formation       ....      46.106 sec  ( 95.8%)
  Split-RI-J                ....       3.576 sec  (  7.8% of F)
  Chain of spheres X        ....      30.509 sec  ( 66.2% of F)
  XC integration            ....       5.141 sec  ( 11.2% of F)
    Basis function eval.    ....       2.424 sec  ( 47.2% of XC)
    Density eval.           ....       1.221 sec  ( 23.8% of XC)
    XC-Functional eval.     ....       0.667 sec  ( 13.0% of XC)
    XC-Potential eval.      ....       0.493 sec  (  9.6% of XC)
Diagonalization             ....       0.003 sec  (  0.0%)
Density matrix formation    ....       0.002 sec  (  0.0%)
Population analysis         ....       0.004 sec  (  0.0%)
Initial guess               ....       0.137 sec  (  0.3%)
Orbital Transformation      ....       0.000 sec  (  0.0%)
Orbital Orthonormalization  ....       0.000 sec  (  0.0%)
DIIS solution               ....       0.006 sec  (  0.0%)
SOSCF solution              ....       0.008 sec  (  0.0%)
Grid generation             ....       1.697 sec  (  3.5%)

Maximum memory used throughout the entire SCF-calculation: 72.9 MB

-------------------------   --------------------
FINAL SINGLE POINT ENERGY      -648.055030655111
-------------------------   --------------------

------------------------------------------------------------------------------
                         ORCA SCF GRADIENT CALCULATION
------------------------------------------------------------------------------

 ... reading COSX grid (gridx3)
Gradient of the Kohn-Sham DFT energy:
Kohn-Sham wavefunction type      ... RKS
Hartree-Fock exchange scaling    ...    0.200
Number of operators              ...    1
Number of atoms                  ...   33
Basis set dimensions             ...   93
Integral neglect threshold       ... 2.5e-11
Integral primitive cutoff        ... 2.5e-12
SHARK Integral package           ... ON

Nuc. rep. gradient       (SHARK) ... done (  0.0 sec)
HCore & Overlap gradient (SHARK) ... done (  0.1 sec)
RI-J gradient            (SHARK) ... done (  0.6 sec)
COSX-gradient                    ... done (  4.6 sec)
Exchange-correlation gradient    ... done

------------------
CARTESIAN GRADIENT
------------------

   1   C   :   -0.006317867    0.016126959   -0.005904759
   2   C   :    0.001589233    0.002595533    0.007726155
   3   C   :    0.016865543   -0.004551472    0.002842715
   4   C   :    0.008205485   -0.013348269   -0.006021888
   5   C   :    0.001877265    0.002063596   -0.003861568
   6   C   :   -0.009895455   -0.000209580    0.005073114
   7   C   :    0.008200628   -0.000697101    0.005184514
   8   C   :   -0.004655440    0.004375340    0.002569869
   9   C   :    0.005411631   -0.000600451   -0.008359232
  10   C   :   -0.007997803    0.000648836   -0.004826018
  11   C   :    0.013899280   -0.017528756    0.016013966
  12   C   :   -0.005903074   -0.021754554   -0.008162393
  13   C   :    0.031666096   -0.012317620    0.011058526
  14   O   :   -0.040788415    0.065079245   -0.034620766
  15   O   :   -0.057427562   -0.000866495   -0.013037235
  16   H   :    0.003251146    0.002981613    0.002348213
  17   H   :    0.001725806   -0.000507430   -0.004308188
  18   H   :   -0.005619954   -0.000210232   -0.000835657
  19   H   :   -0.004554193   -0.001127974    0.006444124
  20   H   :    0.000406897   -0.000152441   -0.004355698
  21   H   :    0.001123425    0.003826009    0.002146366
  22   H   :    0.000926960   -0.004707277    0.001882420
  23   H   :    0.000241521    0.002030970   -0.004400232
  24   H   :    0.003779859   -0.003931206    0.006091505
  25   H   :    0.004914399    0.000493822    0.007766643
  26   H   :   -0.007189697   -0.000488699    0.005811588
  27   H   :   -0.005385461    0.000011511   -0.005391024
  28   H   :    0.006227459    0.000344928   -0.006513441
  29   H   :   -0.001576249   -0.002603935    0.009458548
  30   H   :    0.003382674    0.002442274   -0.003945540
  31   H   :    0.002074244   -0.002025249    0.002482459
  32   H   :   -0.006030758    0.001905318    0.002042439
  33   H   :    0.047594059   -0.017404973    0.017684141

Difference to translation invariance:
           :    0.0000216836   -0.0001077593    0.0000836664

Difference to rotation invariance:
           :   -0.0001949708   -0.0010857966   -0.0012962038

Norm of the cartesian gradient     ...    0.1353863289
RMS gradient                       ...    0.0136068380
MAX gradient                       ...    0.0650792448

-------
TIMINGS
-------

Total SCF gradient time            ...       10.893 sec

One electron gradient       ....       0.089 sec  (  0.8%)
RI-J Coulomb gradient       ....       0.581 sec  (  5.3%)
COSX gradient               ....       4.615 sec  ( 42.4%)
[...]
  22   2.0000      -0.639470       -17.4009 
  23   2.0000      -0.632077       -17.1997 
  24   2.0000      -0.594771       -16.1845 
  25   2.0000      -0.560823       -15.2608 
  26   2.0000      -0.536121       -14.5886 
  27   2.0000      -0.516571       -14.0566 
  28   2.0000      -0.494644       -13.4599 
  29   2.0000      -0.457041       -12.4367 
  30   2.0000      -0.441477       -12.0132 
  31   2.0000      -0.424206       -11.5432 
  32   2.0000      -0.409227       -11.1356 
  33   2.0000      -0.394660       -10.7392 
  34   2.0000      -0.390301       -10.6206 
  35   2.0000      -0.386446       -10.5157 
  36   2.0000      -0.370854       -10.0915 
  37   2.0000      -0.362209        -9.8562 
  38   2.0000      -0.358308        -9.7501 
  39   2.0000      -0.344411        -9.3719 
  40   2.0000      -0.343356        -9.3432 
  41   2.0000      -0.334403        -9.0996 
  42   2.0000      -0.330675        -8.9981 
  43   2.0000      -0.318477        -8.6662 
  44   2.0000      -0.308140        -8.3849 
  45   2.0000      -0.298858        -8.1324 
  46   2.0000      -0.287841        -7.8326 
  47   2.0000      -0.285087        -7.7576 
  48   2.0000      -0.278058        -7.5663 
  49   2.0000      -0.276375        -7.5205 
  50   2.0000      -0.265822        -7.2334 
  51   2.0000      -0.262358        -7.1391 
  52   2.0000      -0.192058        -5.2262 
  53   2.0000      -0.184226        -5.0131 
  54   2.0000      -0.177523        -4.8307 
  55   2.0000      -0.142348        -3.8735 
  56   0.0000       0.081753         2.2246 
  57   0.0000       0.090818         2.4713 
  58   0.0000       0.109762         2.9868 
  59   0.0000       0.234980         6.3941 
  60   0.0000       0.291658         7.9364 
  61   0.0000       0.322937         8.7876 
  62   0.0000       0.329047         8.9538 
  63   0.0000       0.348913         9.4944 
  64   0.0000       0.359348         9.7784 
  65   0.0000       0.374880        10.2010 
  66   0.0000       0.381848        10.3906 
  67   0.0000       0.394381        10.7317 
  68   0.0000       0.405857        11.0439 
  69   0.0000       0.418697        11.3933 
  70   0.0000       0.428335        11.6556 
  71   0.0000       0.432630        11.7725 
  72   0.0000       0.440917        11.9980 
  73   0.0000       0.446426        12.1479 
  74   0.0000       0.452066        12.3013 
  75   0.0000       0.463772        12.6199 
  76   0.0000       0.467679        12.7262 
  77   0.0000       0.482800        13.1376 
  78   0.0000       0.483120        13.1464 
  79   0.0000       0.494263        13.4496 
  80   0.0000       0.496332        13.5059 
  81   0.0000       0.499084        13.5808 
  82   0.0000       0.503145        13.6913 
  83   0.0000       0.506852        13.7922 
  84   0.0000       0.513811        13.9815 
  85   0.0000       0.533628        14.5208 
  86   0.0000       0.570990        15.5374 
  87   0.0000       0.592897        16.1336 
  88   0.0000       0.597179        16.2501 
  89   0.0000       0.617853        16.8126 
  90   0.0000       0.634493        17.2654 
  91   0.0000       0.754831        20.5400 
  92   0.0000       0.787072        21.4173 

                    ********************************
                    * MULLIKEN POPULATION ANALYSIS *
                    ********************************

-----------------------
MULLIKEN ATOMIC CHARGES
-----------------------
   0 C :   -0.222245
   1 C :   -0.038800
   2 C :   -0.221072
   3 C :   -0.138192
   4 C :   -0.000085
   5 C :   -0.088348
   6 C :   -0.087862
   7 C :   -0.023794
   8 C :   -0.088556
   9 C :   -0.087289
  10 C :   -0.078197
  11 C :   -0.217946
  12 C :    0.206201
  13 O :   -0.232067
  14 O :   -0.233426
  15 H :    0.072543
  16 H :    0.071486
  17 H :    0.073323
  18 H :    0.068763
  19 H :    0.072110
  20 H :    0.073130
  21 H :    0.072585
  22 H :    0.076535
  23 H :    0.078555
  24 H :    0.083658
  25 H :    0.084901
  26 H :    0.085203
  27 H :    0.083706
  28 H :    0.091599
  29 H :    0.080768
  30 H :    0.081646
  31 H :    0.083442
  32 H :    0.217723
Sum of atomic charges:   -0.0000000

--------------------------------
MULLIKEN REDUCED ORBITAL CHARGES
--------------------------------
  0 C s       :     3.197453  s :     3.197453
      pz      :     1.004777  p :     3.024793
      px      :     1.027586
      py      :     0.992429
  1 C s       :     3.187807  s :     3.187807
      pz      :     0.979742  p :     2.850992
      px      :     0.945296
      py      :     0.925955
  2 C s       :     3.198297  s :     3.198297
      pz      :     1.027619  p :     3.022775
      px      :     0.966405
      py      :     1.028751
  3 C s       :     3.195802  s :     3.195802
      pz      :     1.023131  p :     2.942390
      px      :     0.937278
      py      :     0.981982
  4 C s       :     3.148927  s :     3.148927
      pz      :     0.943283  p :     2.851158
      px      :     0.935153
      py      :     0.972722
  5 C s       :     3.151869  s :     3.151869
      pz      :     0.977472  p :     2.936479
      px      :     0.951432
      py      :     1.007576
  6 C s       :     3.154316  s :     3.154316
      pz      :     0.968054  p :     2.933546
      px      :     0.961542
      py      :     1.003949
  7 C s       :     3.148840  s :     3.148840
      pz      :     0.947637  p :     2.874953
      px      :     0.919284
      py      :     1.008032
  8 C s       :     3.152949  s :     3.152949
      pz      :     0.976019  p :     2.935607
      px      :     0.955692
      py      :     1.003897
  9 C s       :     3.152421  s :     3.152421
      pz      :     0.971175  p :     2.934868
      px      :     0.957013
      py      :     1.006680
 10 C s       :     3.200835  s :     3.200835
      pz      :     1.003895  p :     2.877362
      px      :     0.933047
      py      :     0.940420
 11 C s       :     3.198658  s :     3.198658
      pz      :     1.007923  p :     3.019288
      px      :     1.028636
      py      :     0.982729
 12 C s       :     3.144548  s :     3.144548
      pz      :     0.915273  p :     2.649251
      px      :     0.861542
      py      :     0.872436
 13 O s       :     3.861642  s :     3.861642
      pz      :     1.604313  p :     4.370425
      px      :     1.332141
      py      :     1.433971
 14 O s       :     3.889238  s :     3.889238
      pz      :     1.267888  p :     4.344188
      px      :     1.270989
      py      :     1.805311
 15 H s       :     0.927457  s :     0.927457
 16 H s       :     0.928514  s :     0.928514
 17 H s       :     0.926677  s :     0.926677
 18 H s       :     0.931237  s :     0.931237
 19 H s       :     0.927890  s :     0.927890
 20 H s       :     0.926870  s :     0.926870
 21 H s       :     0.927415  s :     0.927415
 22 H s       :     0.923465  s :     0.923465
 23 H s       :     0.921445  s :     0.921445
 24 H s       :     0.916342  s :     0.916342
 25 H s       :     0.915099  s :     0.915099
 26 H s       :     0.914797  s :     0.914797
 27 H s       :     0.916294  s :     0.916294
 28 H s       :     0.908401  s :     0.908401
 29 H s       :     0.919232  s :     0.919232
 30 H s       :     0.918354  s :     0.918354
 31 H s       :     0.916558  s :     0.916558
 32 H s       :     0.782277  s :     0.782277


                     *******************************
                     * LOEWDIN POPULATION ANALYSIS *
                     *******************************

----------------------
LOEWDIN ATOMIC CHARGES
----------------------
   0 C :   -0.125235
   1 C :    0.005112
   2 C :   -0.123625
   3 C :   -0.069434
   4 C :    0.008094
   5 C :   -0.054681
   6 C :   -0.053512
   7 C :   -0.017021
   8 C :   -0.053878
   9 C :   -0.053668
  10 C :   -0.040776
  11 C :   -0.117222
  12 C :    0.134212
  13 O :   -0.146934
  14 O :   -0.183837
  15 H :    0.039070
  16 H :    0.038056
  17 H :    0.039699
  18 H :    0.031873
  19 H :    0.038475
  20 H :    0.039515
  21 H :    0.038960
  22 H :    0.040509
  23 H :    0.042594
  24 H :    0.046624
  25 H :    0.047562
  26 H :    0.047921
  27 H :    0.046620
  28 H :    0.052379
  29 H :    0.045419
  30 H :    0.046132
  31 H :    0.047699
  32 H :    0.163301

-------------------------------
LOEWDIN REDUCED ORBITAL CHARGES
-------------------------------
  0 C s       :     3.021767  s :     3.021767
      pz      :     1.031881  p :     3.103469
      px      :     1.049285
      py      :     1.022302
  1 C s       :     3.046502  s :     3.046502
      pz      :     1.005795  p :     2.948386
      px      :     0.979240
      py      :     0.963351
  2 C s       :     3.022506  s :     3.022506
      pz      :     1.049148  p :     3.101118
      px      :     1.002232
      py      :     1.049739
  3 C s       :     3.037973  s :     3.037973
      pz      :     1.043916  p :     3.031460
      px      :     0.976814
      py      :     1.010731
  4 C s       :     3.044393  s :     3.044393
      pz      :     0.995442  p :     2.947514
      px      :     0.978228
      py      :     0.973844
  5 C s       :     3.032028  s :     3.032028
      pz      :     1.011572  p :     3.022653
      px      :     1.002526
      py      :     1.008555
  6 C s       :     3.034149  s :     3.034149
      pz      :     1.006120  p :     3.019363
      px      :     1.008295
      py      :     1.004948
  7 C s       :     3.044700  s :     3.044700
      pz      :     0.998870  p :     2.972321
      px      :     0.964787
      py      :     1.008664
  8 C s       :     3.032691  s :     3.032691
      pz      :     1.010378  p :     3.021187
      px      :     1.005950
      py      :     1.004860
  9 C s       :     3.032550  s :     3.032550
      pz      :     1.008708  p :     3.021119
      px      :     1.004812
      py      :     1.007599
 10 C s       :     3.062593  s :     3.062593
      pz      :     1.026734  p :     2.978183
      px      :     0.971748
      py      :     0.979701
 11 C s       :     3.021347  s :     3.021347
      pz      :     1.033300  p :     3.095875
      px      :     1.049786
      py      :     1.012790
 12 C s       :     3.104336  s :     3.104336
      pz      :     0.938589  p :     2.761453
      px      :     0.910761
      py      :     0.912102
 13 O s       :     3.739583  s :     3.739583
      pz      :     1.608997  p :     4.407351
      px      :     1.344999
      py      :     1.453355
 14 O s       :     3.783668  s :     3.783668
      pz      :     1.284513  p :     4.400168
      px      :     1.305084
      py      :     1.810571
 15 H s       :     0.960930  s :     0.960930
 16 H s       :     0.961944  s :     0.961944
 17 H s       :     0.960301  s :     0.960301
 18 H s       :     0.968127  s :     0.968127
 19 H s       :     0.961525  s :     0.961525
 20 H s       :     0.960485  s :     0.960485
 21 H s       :     0.961040  s :     0.961040
 22 H s       :     0.959491  s :     0.959491
 23 H s       :     0.957406  s :     0.957406
 24 H s       :     0.953376  s :     0.953376
 25 H s       :     0.952438  s :     0.952438
 26 H s       :     0.952079  s :     0.952079
 27 H s       :     0.953380  s :     0.953380
 28 H s       :     0.947621  s :     0.947621
 29 H s       :     0.954581  s :     0.954581
 30 H s       :     0.953868  s :     0.953868
 31 H s       :     0.952301  s :     0.952301
 32 H s       :     0.836699  s :     0.836699


                      *****************************
                      * MAYER POPULATION ANALYSIS *
                      *****************************

  NA   - Mulliken gross atomic population
  ZA   - Total nuclear charge
  QA   - Mulliken gross atomic charge
  VA   - Mayer's total valence
  BVA  - Mayer's bonded valence
  FA   - Mayer's free valence

  ATOM       NA         ZA         QA         VA         BVA        FA
  0 C      6.2222     6.0000    -0.2222     3.9574     3.9574    -0.0000
  1 C      6.0388     6.0000    -0.0388     3.9532     3.9532     0.0000
  2 C      6.2211     6.0000    -0.2211     3.9570     3.9570    -0.0000
  3 C      6.1382     6.0000    -0.1382     3.9539     3.9539     0.0000
  4 C      6.0001     6.0000    -0.0001     3.9689     3.9689    -0.0000
  5 C      6.0883     6.0000    -0.0883     3.9688     3.9688     0.0000
  6 C      6.0879     6.0000    -0.0879     3.9679     3.9679    -0.0000
  7 C      6.0238     6.0000    -0.0238     3.9681     3.9681    -0.0000
  8 C      6.0886     6.0000    -0.0886     3.9686     3.9686    -0.0000
  9 C      6.0873     6.0000    -0.0873     3.9684     3.9684    -0.0000
 10 C      6.0782     6.0000    -0.0782     3.9497     3.9497    -0.0000
 11 C      6.2179     6.0000    -0.2179     3.9521     3.9521    -0.0000
 12 C      5.7938     6.0000     0.2062     3.8956     3.8956    -0.0000
 13 O      8.2321     8.0000    -0.2321     2.2759     2.2759     0.0000
 14 O      8.2334     8.0000    -0.2334     2.2520     2.2520    -0.0000
 15 H      0.9275     1.0000     0.0725     0.9947     0.9947     0.0000
 16 H      0.9285     1.0000     0.0715     0.9949     0.9949    -0.0000
 17 H      0.9267     1.0000     0.0733     0.9946     0.9946     0.0000
 18 H      0.9312     1.0000     0.0688     0.9953     0.9953    -0.0000
 19 H      0.9279     1.0000     0.0721     0.9948     0.9948     0.0000
 20 H      0.9269     1.0000     0.0731     0.9947     0.9947     0.0000
 21 H      0.9274     1.0000     0.0726     0.9947     0.9947     0.0000
 22 H      0.9235     1.0000     0.0765     0.9941     0.9941     0.0000
 23 H      0.9214     1.0000     0.0786     0.9938     0.9938     0.0000
 24 H      0.9163     1.0000     0.0837     0.9930     0.9930     0.0000
 25 H      0.9151     1.0000     0.0849     0.9928     0.9928    -0.0000
 26 H      0.9148     1.0000     0.0852     0.9927     0.9927    -0.0000
 27 H      0.9163     1.0000     0.0837     0.9930     0.9930     0.0000
 28 H      0.9084     1.0000     0.0916     0.9916     0.9916     0.0000
 29 H      0.9192     1.0000     0.0808     0.9935     0.9935    -0.0000
 30 H      0.9184     1.0000     0.0816     0.9933     0.9933     0.0000
 31 H      0.9166     1.0000     0.0834     0.9930     0.9930    -0.0000
 32 H      0.7823     1.0000     0.2177     0.9526     0.9526     0.0000

  Mayer bond orders larger than 0.100000
B(  0-C ,  1-C ) :   0.9922 B(  0-C , 15-H ) :   0.9779 B(  0-C , 16-H ) :   0.9783 
B(  0-C , 17-H ) :   0.9764 B(  1-C ,  2-C ) :   0.9897 B(  1-C ,  3-C ) :   0.9641 
B(  1-C , 18-H ) :   0.9603 B(  2-C , 19-H ) :   0.9783 B(  2-C , 20-H ) :   0.9776 
B(  2-C , 21-H ) :   0.9779 B(  3-C ,  4-C ) :   0.9923 B(  3-C , 22-H ) :   0.9669 
B(  3-C , 23-H ) :   0.9628 B(  4-C ,  5-C ) :   1.4044 B(  4-C ,  7-C ) :   0.1097 
B(  4-C ,  9-C ) :   1.3989 B(  5-C ,  6-C ) :   1.4387 B(  5-C ,  8-C ) :   0.1115 
B(  5-C , 24-H ) :   0.9607 B(  6-C ,  7-C ) :   1.3955 B(  6-C ,  9-C ) :   0.1079 
B(  6-C , 25-H ) :   0.9599 B(  7-C ,  8-C ) :   1.3899 B(  7-C , 10-C ) :   0.9796 
B(  8-C ,  9-C ) :   1.4453 B(  8-C , 26-H ) :   0.9598 B(  9-C , 27-H ) :   0.9605 
B( 10-C , 11-C ) :   0.9824 B( 10-C , 12-C ) :   0.8764 B( 10-C , 28-H ) :   0.9490 
B( 11-C , 29-H ) :   0.9764 B( 11-C , 30-H ) :   0.9766 B( 11-C , 31-H ) :   0.9738 
B( 12-C , 13-O ) :   1.0666 B( 12-C , 14-O ) :   1.8996 B( 13-O , 14-O ) :   0.2268 
B( 13-O , 32-H ) :   0.9011 

-------
TIMINGS
-------

Total SCF time: 0 days 0 hours 0 min 19 sec 

Total time                  ....      19.387 sec
Sum of individual times     ....      19.217 sec  ( 99.1%)

Fock matrix formation       ....      17.739 sec  ( 91.5%)
  Split-RI-J                ....       1.310 sec  (  7.4% of F)
  Chain of spheres X        ....      12.761 sec  ( 71.9% of F)
  XC integration            ....       1.614 sec  (  9.1% of F)
    Basis function eval.    ....       0.763 sec  ( 47.3% of XC)
    Density eval.           ....       0.393 sec  ( 24.3% of XC)
    XC-Functional eval.     ....       0.220 sec  ( 13.6% of XC)
    XC-Potential eval.      ....       0.102 sec  (  6.3% of XC)
Diagonalization             ....       0.001 sec  (  0.0%)
Density matrix formation    ....       0.000 sec  (  0.0%)
Population analysis         ....       0.010 sec  (  0.1%)
Initial guess               ....       0.001 sec  (  0.0%)
Orbital Transformation      ....       0.000 sec  (  0.0%)
Orbital Orthonormalization  ....       0.000 sec  (  0.0%)
DIIS solution               ....       0.000 sec  (  0.0%)
SOSCF solution              ....       0.005 sec  (  0.0%)
Grid generation             ....       1.461 sec  (  7.5%)

Maximum memory used throughout the entire SCF-calculation: 73.8 MB

-------------------------   --------------------
FINAL SINGLE POINT ENERGY      -648.077085396641
-------------------------   --------------------

                                *** OPTIMIZATION RUN DONE ***

                            ***************************************
                            *     ORCA property calculations      *
                            ***************************************

                                    ---------------------
                                    Active property flags
                                    ---------------------
   (+) Dipole Moment


------------------------------------------------------------------------------
                       ORCA ELECTRIC PROPERTIES CALCULATION
------------------------------------------------------------------------------

Dipole Moment Calculation                       ... on
Quadrupole Moment Calculation                   ... off
Polarizability Calculation                      ... off
GBWName                                         ... Ibuprofeno\Ibuprofeno_B3LYP_STO-3G\Ibuprofeno_B3LYP_STO-3G.orcainp.gbw
Electron density                                ... Ibuprofeno\Ibuprofeno_B3LYP_STO-3G\Ibuprofeno_B3LYP_STO-3G.orcainp.scfp
The origin for moment calculation is the CENTER OF MASS  = (11.484691, -3.528450 -0.305077)

-------------
DIPOLE MOMENT
-------------
                                X             Y             Z
Electronic contribution:     20.05768      -0.42117       2.66118
Nuclear contribution   :    -21.31668       0.97932      -3.41877
                        -----------------------------------------
Total Dipole Moment    :     -1.25900       0.55815      -0.75759
                        -----------------------------------------
Magnitude (a.u.)       :      1.57180
Magnitude (Debye)      :      3.99521



--------------------
Rotational spectrum 
--------------------
 
Rotational constants in cm-1:     0.046096     0.008350     0.007827 
Rotational constants in MHz :  1381.919415   250.320555   234.658457 

 Dipole components along the rotational axes: 
x,y,z [a.u.] :    -1.329058    -0.741104    -0.393623 
x,y,z [Debye]:    -3.378197    -1.883737    -1.000510 

 

Timings for individual modules:

Sum of individual times         ...      763.019 sec (=  12.717 min)
GTO integral calculation        ...        1.676 sec (=   0.028 min)   0.2 %
SCF iterations                  ...      606.269 sec (=  10.104 min)  79.5 %
SCF Gradient evaluation         ...      153.836 sec (=   2.564 min)  20.2 %
Geometry relaxation             ...        1.238 sec (=   0.021 min)   0.2 %
                             ****ORCA TERMINATED NORMALLY****
TOTAL RUN TIME: 0 days 0 hours 12 minutes 44 seconds 603 msec
