
                                 *****************
                                 * O   R   C   A *
                                 *****************

                                            #,                                       
                                            ###                                      
                                            ####                                     
                                            #####                                    
                                            ######                                   
                                           ########,                                 
                                     ,,################,,,,,                         
                               ,,#################################,,                 
                          ,,##########################################,,             
                       ,#########################################, ''#####,          
                    ,#############################################,,   '####,        
                  ,##################################################,,,,####,       
                ,###########''''           ''''###############################       
              ,#####''   ,,,,##########,,,,          '''####'''          '####       
            ,##' ,,,,###########################,,,                        '##       
           ' ,,###''''                  '''############,,,                           
         ,,##''                                '''############,,,,        ,,,,,,###''
      ,#''                                            '''#######################'''  
     '                                                          ''''####''''         
             ,#######,   #######,   ,#######,      ##                                
            ,#'     '#,  ##    ##  ,#'     '#,    #''#        ######   ,####,        
            ##       ##  ##   ,#'  ##            #'  '#       #        #'  '#        
            ##       ##  #######   ##           ,######,      #####,   #    #        
            '#,     ,#'  ##    ##  '#,     ,#' ,#      #,         ##   #,  ,#        
             '#######'   ##     ##  '#######'  #'      '#     #####' # '####'        



                  #######################################################
                  #                        -***-                        #
                  #          Department of theory and spectroscopy      #
                  #    Directorship and core code : Frank Neese         #
                  #        Max Planck Institute fuer Kohlenforschung    #
                  #                Kaiser Wilhelm Platz 1               #
                  #                 D-45470 Muelheim/Ruhr               #
                  #                      Germany                        #
                  #                                                     #
                  #                  All rights reserved                #
                  #                        -***-                        #
                  #######################################################



                         Program Version 5.0.4 -  RELEASE  -

 With contributions from (in alphabetic order):
   Daniel Aravena         : Magnetic Suceptibility
   Michael Atanasov       : Ab Initio Ligand Field Theory (pilot matlab implementation)
   Alexander A. Auer      : GIAO ZORA, VPT2 properties, NMR spectrum
   Ute Becker             : Parallelization
   Giovanni Bistoni       : ED, misc. LED, open-shell LED, HFLD
   Martin Brehm           : Molecular dynamics
   Dmytro Bykov           : SCF Hessian
   Vijay G. Chilkuri      : MRCI spin determinant printing, contributions to CSF-ICE
   Dipayan Datta          : RHF DLPNO-CCSD density
   Achintya Kumar Dutta   : EOM-CC, STEOM-CC
   Dmitry Ganyushin       : Spin-Orbit,Spin-Spin,Magnetic field MRCI
   Miquel Garcia          : C-PCM and meta-GGA Hessian, CC/C-PCM, Gaussian charge scheme
   Yang Guo               : DLPNO-NEVPT2, F12-NEVPT2, CIM, IAO-localization
   Andreas Hansen         : Spin unrestricted coupled pair/coupled cluster methods
   Benjamin Helmich-Paris : MC-RPA, TRAH-SCF, COSX integrals
   Lee Huntington         : MR-EOM, pCC
   Robert Izsak           : Overlap fitted RIJCOSX, COSX-SCS-MP3, EOM
   Marcus Kettner         : VPT2
   Christian Kollmar      : KDIIS, OOCD, Brueckner-CCSD(T), CCSD density, CASPT2, CASPT2-K
   Simone Kossmann        : Meta GGA functionals, TD-DFT gradient, OOMP2, MP2 Hessian
   Martin Krupicka        : Initial AUTO-CI
   Lucas Lang             : DCDCAS
   Marvin Lechner         : AUTO-CI (C++ implementation), FIC-MRCC
   Dagmar Lenk            : GEPOL surface, SMD
   Dimitrios Liakos       : Extrapolation schemes; Compound Job, initial MDCI parallelization
   Dimitrios Manganas     : Further ROCIS development; embedding schemes
   Dimitrios Pantazis     : SARC Basis sets
   Anastasios Papadopoulos: AUTO-CI, single reference methods and gradients
   Taras Petrenko         : DFT Hessian,TD-DFT gradient, ASA, ECA, R-Raman, ABS, FL, XAS/XES, NRVS
   Peter Pinski           : DLPNO-MP2, DLPNO-MP2 Gradient
   Christoph Reimann      : Effective Core Potentials
   Marius Retegan         : Local ZFS, SOC
   Christoph Riplinger    : Optimizer, TS searches, QM/MM, DLPNO-CCSD(T), (RO)-DLPNO pert. Triples
   Tobias Risthaus        : Range-separated hybrids, TD-DFT gradient, RPA, STAB
   Michael Roemelt        : Original ROCIS implementation
   Masaaki Saitow         : Open-shell DLPNO-CCSD energy and density
   Barbara Sandhoefer     : DKH picture change effects
   Avijit Sen             : IP-ROCIS
   Kantharuban Sivalingam : CASSCF convergence, NEVPT2, FIC-MRCI
   Bernardo de Souza      : ESD, SOC TD-DFT
   Georgi Stoychev        : AutoAux, RI-MP2 NMR, DLPNO-MP2 response
   Willem Van den Heuvel  : Paramagnetic NMR
   Boris Wezisla          : Elementary symmetry handling
   Frank Wennmohs         : Technical directorship


 We gratefully acknowledge several colleagues who have allowed us to
 interface, adapt or use parts of their codes:
   Stefan Grimme, W. Hujo, H. Kruse, P. Pracht,  : VdW corrections, initial TS optimization,
                  C. Bannwarth, S. Ehlert          DFT functionals, gCP, sTDA/sTD-DF
   Ed Valeev, F. Pavosevic, A. Kumar             : LibInt (2-el integral package), F12 methods
   Garnet Chan, S. Sharma, J. Yang, R. Olivares  : DMRG
   Ulf Ekstrom                                   : XCFun DFT Library
   Mihaly Kallay                                 : mrcc  (arbitrary order and MRCC methods)
   Jiri Pittner, Ondrej Demel                    : Mk-CCSD
   Frank Weinhold                                : gennbo (NPA and NBO analysis)
   Christopher J. Cramer and Donald G. Truhlar   : smd solvation model
   Lars Goerigk                                  : TD-DFT with DH, B97 family of functionals
   V. Asgeirsson, H. Jonsson                     : NEB implementation
   FAccTs GmbH                                   : IRC, NEB, NEB-TS, DLPNO-Multilevel, CI-OPT
                                                   MM, QMMM, 2- and 3-layer-ONIOM, Crystal-QMMM,
                                                   LR-CPCM, SF, NACMEs, symmetry and pop. for TD-DFT,
                                                   nearIR, NL-DFT gradient (VV10), updates on ESD,
                                                   ML-optimized integration grids
   S Lehtola, MJT Oliveira, MAL Marques          : LibXC Library
   Liviu Ungur et al                             : ANISO software


 Your calculation uses the libint2 library for the computation of 2-el integrals
 For citations please refer to: http://libint.valeyev.net

 Your ORCA version has been built with support for libXC version: 5.1.0
 For citations please refer to: https://tddft.org/programs/libxc/

 This ORCA versions uses:
   CBLAS   interface :  Fast vector & matrix operations
   LAPACKE interface :  Fast linear algebra routines
   Shared memory     :  Shared parallel matrices


================================================================================

----- Orbital basis set information -----
Your calculation utilizes the basis: 6-311+G**
   H, Li - Ne  : R. Krishnan, J. S. Binkley, R. Seeger and J. A. Pople, J. Chem. Phys. 72, 650 (1980).
   Na - Ar     : A. D. McLean and G. S. Chandler J. Chem. Phys. 72, 5639, (1980).
   K  - Ca     : J.-P. Blaudeau, M. P. McGrath, L. A. Curtiss and L. Radom, J. Chem. Phys. 107, 5016 (1997).
   Ga - Kr     : L. A. Curtiss, M. P. McGrath, J.-P. Blandeau, N. E. Davis, R. C. Binning and L. Radom, J. Chem. Phys. 103, 6104 (1995).
   Pol./Diff.
   H, Li - Cl  : T. Clark, J. Chandrasekhar and P. v. R. Schleyer, J. Comp. Chem. 4, 294 (1983).
   H - Ne      : M. J. Frisch, J. A. Pople and J. S. Binkley, J. Chem. Phys. 80, 3265 (1984).

----- AuxJ basis set information -----
Your calculation utilizes the auxiliary basis: def2/J
   F. Weigend, Phys. Chem. Chem. Phys. 8, 1057 (2006).

================================================================================
                                        WARNINGS
                       Please study these warnings very carefully!
================================================================================


WARNING: Geometry Optimization
  ===> : Switching off AutoStart
         For restart on a previous wavefunction, please use MOREAD

INFO   : the flag for use of the SHARK integral package has been found!

================================================================================
                                       INPUT FILE
================================================================================
NAME = Dexketoprofen\Dexketoprofen_B3LYP_6-311+G\Dexketoprofen_B3LYP_6-311+G.orcainp
|  1> # ORCA input file
|  2> # 
|  3> !B3LYP 6-311+G** Opt CPCM(WATER)
|  4> 
|  5> * xyz 0 1
|  6>    H        2.00250        -0.97652        -0.40737
|  7>    C        2.12691         0.04515        -0.01930
|  8>    C        3.18653         0.74372        -0.88584
|  9>    C        0.77693         0.72908        -0.24715
| 10>    O       -0.09000         0.66634         0.79607
| 11>    O        0.43454         1.24174        -1.30655
| 12>    C        2.59669        -0.05102         1.43442
| 13>    C        2.81147        -1.30422         2.04756
| 14>    C        3.29655        -1.38571         3.36637
| 15>    C        3.61456        -0.21427         4.05923
| 16>    C        3.37408         1.02811         3.47642
| 17>    C        2.85272         1.11055         2.18336
| 18>    C        3.51606        -2.67581         4.06883
| 19>    O        4.46597        -2.78146         4.84235
| 20>    C        2.60272        -3.83812         3.89052
| 21>    C        1.24693        -3.67494         3.58221
| 22>    C        0.43272        -4.79349         3.39241
| 23>    C        0.96277        -6.07579         3.53543
| 24>    C        2.29946        -6.24394         3.89158
| 25>    C        3.11809        -5.12845         4.07659
| 26>    H        2.86710         0.79991        -1.93235
| 27>    H        4.14117         0.20650        -0.85983
| 28>    H        3.36875         1.77216        -0.55415
| 29>    H        0.26521         0.23991         1.59854
| 30>    H        2.63348        -2.21860         1.48382
| 31>    H        4.04752        -0.26791         5.05642
| 32>    H        3.60568         1.93642         4.03029
| 33>    H        2.67279         2.09775         1.75905
| 34>    H        0.80211        -2.68733         3.50254
| 35>    H       -0.61725        -4.66734         3.13986
| 36>    H        0.32782        -6.94633         3.38409
| 37>    H        2.70685        -7.24304         4.02571
| 38>    H        4.15777        -5.26632         4.36571
| 39> *
| 40> 
| 41>                          ****END OF INPUT****
================================================================================

                       *****************************
                       * Geometry Optimization Run *
                       *****************************

Geometry optimization settings:
Update method            Update   .... BFGS
Choice of coordinates    CoordSys .... Z-matrix Internals
Initial Hessian          InHess   .... Almoef's Model

Convergence Tolerances:
Energy Change            TolE     ....  5.0000e-06 Eh
Max. Gradient            TolMAXG  ....  3.0000e-04 Eh/bohr
RMS Gradient             TolRMSG  ....  1.0000e-04 Eh/bohr
Max. Displacement        TolMAXD  ....  4.0000e-03 bohr
RMS Displacement         TolRMSD  ....  2.0000e-03 bohr
Strict Convergence                ....  False
------------------------------------------------------------------------------
                        ORCA OPTIMIZATION COORDINATE SETUP
------------------------------------------------------------------------------

The optimization will be done in new redundant internal coordinates
Making redundant internal coordinates   ...  (new redundants) done
Evaluating the initial hessian          ...  (Almloef) done
Evaluating the coordinates              ...  done
Calculating the B-matrix                .... done
Calculating the G-matrix                .... done
Diagonalizing the G-matrix              .... done
Small eigenvalue found = 3.216e-03
Small eigenvalue found = 1.299e-02
Small eigenvalue found = 1.681e-02
Small eigenvalue found = 2.932e-02
The first mode is                       ....   75
The number of degrees of freedom        ....   93

    -----------------------------------------------------------------
                    Redundant Internal Coordinates


    -----------------------------------------------------------------
         Definition                    Initial Value    Approx d2E/dq
    -----------------------------------------------------------------
      1. B(C   1,H   0)                  1.0999         0.347178   
      2. B(C   2,C   1)                  1.5368         0.364388   
      3. B(C   3,C   1)                  1.5304         0.373027   
      4. B(O   4,C   3)                  1.3579         0.629704   
      5. B(O   5,C   3)                  1.2257         1.023246   
      6. B(C   6,C   1)                  1.5308         0.372525   
      7. B(C   7,C   6)                  1.4116         0.577160   
      8. B(C   8,C   7)                  1.4076         0.585781   
      9. B(C   9,C   8)                  1.3977         0.607457   
     10. B(C  10,C   9)                  1.3932         0.617495   
     11. B(C  11,C  10)                  1.3966         0.609729   
     12. B(C  11,C   6)                  1.4056         0.590000   
     13. B(C  12,C   8)                  1.4853         0.440311   
     14. B(O  13,C  12)                  1.2296         1.008888   
     15. B(C  14,C  12)                  1.4889         0.434393   
     16. B(C  15,C  14)                  1.3999         0.602379   
     17. B(C  16,C  15)                  1.3965         0.610131   
     18. B(C  17,C  16)                  1.3949         0.613687   
     19. B(C  18,C  17)                  1.3935         0.616802   
     20. B(C  19,C  18)                  1.3960         0.611267   
     21. B(C  19,C  14)                  1.4018         0.598184   
     22. B(H  20,C   2)                  1.0956         0.352746   
     23. B(H  21,C   2)                  1.0957         0.352602   
     24. B(H  22,C   2)                  1.0959         0.352430   
     25. B(H  23,O   4)                  0.9757         0.490830   
     26. B(H  24,C   7)                  1.0888         0.361637   
     27. B(H  25,C   9)                  1.0884         0.362159   
     28. B(H  26,C  10)                  1.0888         0.361720   
     29. B(H  27,C  11)                  1.0895         0.360782   
     30. B(H  28,C  15)                  1.0861         0.365313   
     31. B(H  29,C  16)                  1.0873         0.363744   
     32. B(H  30,C  17)                  1.0881         0.362657   
     33. B(H  31,C  18)                  1.0873         0.363728   
     34. B(H  32,C  19)                  1.0879         0.362885   
     35. A(C   2,C   1,C   3)          108.7311         0.361719   
     36. A(C   3,C   1,C   6)          116.1152         0.363086   
     37. A(H   0,C   1,C   2)          107.5338         0.321069   
     38. A(H   0,C   1,C   3)          105.2360         0.322303   
     39. A(H   0,C   1,C   6)          108.1441         0.322232   
     40. A(C   2,C   1,C   6)          110.6367         0.361636   
     41. A(C   1,C   2,H  21)          111.3751         0.321885   
     42. A(H  20,C   2,H  22)          106.8255         0.288922   
     43. A(C   1,C   2,H  20)          111.1543         0.321906   
     44. A(H  20,C   2,H  21)          107.5676         0.288944   
     45. A(H  21,C   2,H  22)          107.9428         0.288904   
     46. A(C   1,C   2,H  22)          111.7516         0.321859   
     47. A(O   4,C   3,O   5)          120.3321         0.470505   
     48. A(C   1,C   3,O   5)          124.1945         0.430681   
     49. A(C   1,C   3,O   4)          115.3502         0.395125   
     50. A(C   3,O   4,H  23)          114.8118         0.367449   
     51. A(C   7,C   6,C  11)          118.3273         0.424729   
     52. A(C   1,C   6,C  11)          120.6632         0.393056   
     53. A(C   1,C   6,C   7)          120.9955         0.391545   
     54. A(C   8,C   7,H  24)          119.5260         0.349791   
     55. A(C   6,C   7,C   8)          120.7179         0.424184   
     56. A(C   6,C   7,H  24)          119.7216         0.348917   
     57. A(C   7,C   8,C   9)          119.6277         0.428088   
     58. A(C   9,C   8,C  12)          117.3825         0.406872   
     59. A(C   7,C   8,C  12)          122.9807         0.404268   
     60. A(C   8,C   9,C  10)          120.0504         0.432159   
     61. A(C  10,C   9,H  25)          119.7263         0.353008   
     62. A(C   8,C   9,H  25)          120.2230         0.352030   
     63. A(C   9,C  10,H  26)          119.6311         0.352935   
     64. A(C  11,C  10,H  26)          120.0755         0.352180   
     65. A(C   9,C  10,C  11)          120.2896         0.432449   
     66. A(C  10,C  11,H  27)          118.4056         0.352026   
     67. A(C   6,C  11,H  27)          120.7443         0.350075   
     68. A(C   6,C  11,C  10)          120.8321         0.428926   
     69. A(O  13,C  12,C  14)          118.8268         0.441535   
     70. A(C   8,C  12,C  14)          122.0567         0.383639   
     71. A(C   8,C  12,O  13)          119.1009         0.442616   
     72. A(C  15,C  14,C  19)          119.5090         0.429053   
     73. A(C  12,C  14,C  19)          118.4974         0.404798   
     74. A(C  12,C  14,C  15)          121.9683         0.405298   
     75. A(C  14,C  15,C  16)          120.0813         0.430579   
     76. A(C  16,C  15,H  28)          118.6589         0.352809   
     77. A(C  14,C  15,H  28)          121.2512         0.352047   
     78. A(C  15,C  16,C  17)          120.0559         0.432020   
     79. A(C  17,C  16,H  29)          119.8308         0.352899   
     80. A(C  15,C  16,H  29)          120.1118         0.352552   
     81. A(C  16,C  17,C  18)          120.1083         0.432865   
     82. A(C  18,C  17,H  30)          119.9185         0.353023   
     83. A(C  16,C  17,H  30)          119.9662         0.352720   
     84. A(C  17,C  18,C  19)          119.9979         0.432558   
     85. A(C  19,C  18,H  31)          119.8813         0.352661   
     86. A(C  17,C  18,H  31)          120.1208         0.353199   
     87. A(C  14,C  19,C  18)          120.1545         0.430182   
     88. A(C  18,C  19,H  32)          119.6294         0.352522   
     89. A(C  14,C  19,H  32)          120.2161         0.351235   
     90. D(H  20,C   2,C   1,C   3)    -52.4567         0.010635   
     91. D(H  22,C   2,C   1,H   0)   -179.7485         0.010635   
     92. D(H  21,C   2,C   1,C   3)   -172.3904         0.010635   
     93. D(H  21,C   2,C   1,H   0)    -58.9281         0.010635   
     94. D(H  21,C   2,C   1,C   6)     58.9739         0.010635   
     95. D(H  20,C   2,C   1,C   6)    178.9077         0.010635   
     96. D(H  22,C   2,C   1,C   6)    -61.8464         0.010635   
     97. D(H  20,C   2,C   1,H   0)     61.0056         0.010635   
     98. D(H  22,C   2,C   1,C   3)     66.7892         0.010635   
     99. D(O   5,C   3,C   1,C   2)     31.8545         0.010408   
    100. D(O   5,C   3,C   1,H   0)    -83.1103         0.010408   
    101. D(O   4,C   3,C   1,C   6)    -26.6823         0.010408   
    102. D(O   4,C   3,C   1,C   2)   -152.1815         0.010408   
    103. D(O   5,C   3,C   1,C   6)    157.3537         0.010408   
    104. D(O   4,C   3,C   1,H   0)     92.8537         0.010408   
    105. D(H  23,O   4,C   3,O   5)    179.8330         0.029159   
    106. D(H  23,O   4,C   3,C   1)      3.7005         0.029159   
    107. D(C  11,C   6,C   1,C   2)     61.7883         0.010382   
    108. D(C  11,C   6,C   1,H   0)    179.3164         0.010382   
    109. D(C   7,C   6,C   1,C   3)    118.6435         0.010382   
    110. D(C  11,C   6,C   1,C   3)    -62.7378         0.010382   
    111. D(C   7,C   6,C   1,C   2)   -116.8305         0.010382   
    112. D(C   7,C   6,C   1,H   0)      0.6977         0.010382   
    113. D(H  24,C   7,C   6,C  11)   -179.1619         0.022876   
    114. D(H  24,C   7,C   6,C   1)     -0.5116         0.022876   
    115. D(C   8,C   7,C   6,C  11)     -1.3089         0.022876   
    116. D(C   8,C   7,C   6,C   1)    177.3414         0.022876   
    117. D(C  12,C   8,C   7,H  24)     -3.3445         0.023597   
    118. D(C  12,C   8,C   7,C   6)    178.7983         0.023597   
    119. D(C   9,C   8,C   7,H  24)    175.5364         0.023597   
    120. D(C   9,C   8,C   7,C   6)     -2.3208         0.023597   
    121. D(H  25,C   9,C   8,C  12)      2.6971         0.025473   
    122. D(H  25,C   9,C   8,C   7)   -176.2457         0.025473   
    123. D(C  10,C   9,C   8,C  12)   -177.1002         0.025473   
    124. D(C  10,C   9,C   8,C   7)      3.9570         0.025473   
    125. D(H  26,C  10,C   9,H  25)     -1.0334         0.026372   
    126. D(H  26,C  10,C   9,C   8)    178.7649         0.026372   
    127. D(C  11,C  10,C   9,H  25)    178.2602         0.026372   
    128. D(C  11,C  10,C   9,C   8)     -1.9415         0.026372   
    129. D(H  27,C  11,C  10,C   9)    179.7519         0.025675   
    130. D(C   6,C  11,C  10,H  26)    177.5099         0.025675   
    131. D(C   6,C  11,C  10,C   9)     -1.7805         0.025675   
    132. D(H  27,C  11,C   6,C   7)   -178.2060         0.023955   
    133. D(H  27,C  11,C   6,C   1)      3.1391         0.023955   
    134. D(C  10,C  11,C   6,C   7)      3.3624         0.023955   
    135. D(H  27,C  11,C  10,H  26)     -0.9577         0.025675   
    136. D(C  10,C  11,C   6,C   1)   -175.2925         0.023955   
    137. D(C  14,C  12,C   8,C   9)    144.0346         0.013228   
    138. D(C  14,C  12,C   8,C   7)    -37.0609         0.013228   
    139. D(O  13,C  12,C   8,C   9)    -34.5126         0.013228   
    140. D(O  13,C  12,C   8,C   7)    144.3919         0.013228   
    141. D(C  19,C  14,C  12,O  13)    -28.4954         0.012884   
    142. D(C  19,C  14,C  12,C   8)    152.9536         0.012884   
    143. D(C  15,C  14,C  12,O  13)    149.6670         0.012884   
    144. D(C  15,C  14,C  12,C   8)    -28.8841         0.012884   
    145. D(H  28,C  15,C  14,C  19)    175.5516         0.025026   
    146. D(H  28,C  15,C  14,C  12)     -2.5927         0.025026   
    147. D(C  16,C  15,C  14,C  19)     -3.3705         0.025026   
    148. D(C  16,C  15,C  14,C  12)    178.4853         0.025026   
    149. D(H  29,C  16,C  15,H  28)      1.8689         0.025711   
    150. D(H  29,C  16,C  15,C  14)   -179.1813         0.025711   
    151. D(C  17,C  16,C  15,H  28)   -177.6939         0.025711   
    152. D(C  17,C  16,C  15,C  14)      1.2559         0.025711   
    153. D(H  30,C  17,C  16,H  29)      0.6313         0.026029   
    154. D(H  30,C  17,C  16,C  15)   -179.8046         0.026029   
    155. D(C  18,C  17,C  16,H  29)   -178.4033         0.026029   
    156. D(C  18,C  17,C  16,C  15)      1.1608         0.026029   
    157. D(H  31,C  18,C  17,H  30)     -0.4591         0.026309   
    158. D(H  31,C  18,C  17,C  16)    178.5759         0.026309   
    159. D(C  19,C  18,C  17,H  30)    179.5309         0.026309   
    160. D(C  19,C  18,C  17,C  16)     -1.4341         0.026309   
    161. D(H  32,C  19,C  18,C  17)    179.3021         0.025812   
    162. D(C  14,C  19,C  18,H  31)    179.2837         0.025812   
    163. D(C  14,C  19,C  18,C  17)     -0.7063         0.025812   
    164. D(H  32,C  19,C  14,C  15)   -176.9095         0.024660   
    165. D(H  32,C  19,C  14,C  12)      1.2991         0.024660   
    166. D(C  18,C  19,C  14,C  15)      3.0990         0.024660   
    167. D(H  32,C  19,C  18,H  31)     -0.7078         0.025812   
    168. D(C  18,C  19,C  14,C  12)   -178.6924         0.024660   
    -----------------------------------------------------------------

Number of atoms                         .... 33
Number of degrees of freedom            .... 168

         *************************************************************
         *                GEOMETRY OPTIMIZATION CYCLE   1            *
         *************************************************************
---------------------------------
CARTESIAN COORDINATES (ANGSTROEM)
---------------------------------
  H      2.002500   -0.976520   -0.407370
  C      2.126910    0.045150   -0.019300
  C      3.186530    0.743720   -0.885840
  C      0.776930    0.729080   -0.247150
  O     -0.090000    0.666340    0.796070
  O      0.434540    1.241740   -1.306550
  C      2.596690   -0.051020    1.434420
  C      2.811470   -1.304220    2.047560
  C      3.296550   -1.385710    3.366370
  C      3.614560   -0.214270    4.059230
  C      3.374080    1.028110    3.476420
  C      2.852720    1.110550    2.183360
  C      3.516060   -2.675810    4.068830
  O      4.465970   -2.781460    4.842350
  C      2.602720   -3.838120    3.890520
  C      1.246930   -3.674940    3.582210
  C      0.432720   -4.793490    3.392410
  C      0.962770   -6.075790    3.535430
  C      2.299460   -6.243940    3.891580
  C      3.118090   -5.128450    4.076590
  H      2.867100    0.799910   -1.932350
  H      4.141170    0.206500   -0.859830
  H      3.368750    1.772160   -0.554150
  H      0.265210    0.239910    1.598540
  H      2.633480   -2.218600    1.483820
  H      4.047520   -0.267910    5.056420
  H      3.605680    1.936420    4.030290
  H      2.672790    2.097750    1.759050
  H      0.802110   -2.687330    3.502540
  H     -0.617250   -4.667340    3.139860
  H      0.327820   -6.946330    3.384090
  H      2.706850   -7.243040    4.025710
  H      4.157770   -5.266320    4.365710

----------------------------
CARTESIAN COORDINATES (A.U.)
----------------------------
  NO LB      ZA    FRAG     MASS         X           Y           Z
   0 H     1.0000    0     1.008    3.784177   -1.845355   -0.769818
   1 C     6.0000    0    12.011    4.019277    0.085321   -0.036472
   2 C     6.0000    0    12.011    6.021669    1.405427   -1.673995
   3 C     6.0000    0    12.011    1.468185    1.377762   -0.467046
   4 O     8.0000    0    15.999   -0.170075    1.259200    1.504354
   5 O     8.0000    0    15.999    0.821162    2.346549   -2.469022
   6 C     6.0000    0    12.011    4.907033   -0.096414    2.710661
   7 C     6.0000    0    12.011    5.312908   -2.464619    3.869328
   8 C     6.0000    0    12.011    6.229577   -2.618612    6.361517
   9 C     6.0000    0    12.011    6.830528   -0.404912    7.670833
  10 C     6.0000    0    12.011    6.376087    1.942846    6.569482
  11 C     6.0000    0    12.011    5.390860    2.098635    4.125952
  12 C     6.0000    0    12.011    6.644390   -5.056548    7.688974
  13 O     8.0000    0    15.999    8.439460   -5.256198    9.150715
  14 C     6.0000    0    12.011    4.918428   -7.252996    7.352017
  15 C     6.0000    0    12.011    2.356356   -6.944630    6.769396
  16 C     6.0000    0    12.011    0.817722   -9.058383    6.410726
  17 C     6.0000    0    12.011    1.819372  -11.481579    6.680994
  18 C     6.0000    0    12.011    4.345350  -11.799337    7.354020
  19 C     6.0000    0    12.011    5.892336   -9.691366    7.703639
  20 H     1.0000    0     1.008    5.418034    1.511611   -3.651612
  21 H     1.0000    0     1.008    7.825677    0.390228   -1.624843
  22 H     1.0000    0     1.008    6.366015    3.348897   -1.047192
  23 H     1.0000    0     1.008    0.501174    0.453364    3.020803
  24 H     1.0000    0     1.008    4.976556   -4.192546    2.804013
  25 H     1.0000    0     1.008    7.648704   -0.506277    9.555249
  26 H     1.0000    0     1.008    6.813748    3.659303    7.616144
  27 H     1.0000    0     1.008    5.050841    3.964173    3.324123
  28 H     1.0000    0     1.008    1.515768   -5.078318    6.618841
  29 H     1.0000    0     1.008   -1.166433   -8.819994    5.933475
  30 H     1.0000    0     1.008    0.619490  -13.126661    6.395003
  31 H     1.0000    0     1.008    5.115205  -13.687362    7.607489
  32 H     1.0000    0     1.008    7.857047   -9.951903    8.249996

--------------------------------
INTERNAL COORDINATES (ANGSTROEM)
--------------------------------
 H      0   0   0     0.000000000000     0.00000000     0.00000000
 C      1   0   0     1.099948072365     0.00000000     0.00000000
 C      2   1   0     1.536777850211   107.53381402     0.00000000
 C      2   1   3     1.530399251111   105.23595434   115.79135263
 O      4   2   1     1.357870354968   115.35018568    92.85366078
 O      4   2   1     1.225715932710   124.19453327   276.88965787
 C      2   1   3     1.530765741614   108.14407610   240.49557100
 C      7   2   1     1.411588235995   120.99547072     0.69770521
 C      8   7   2     1.407552145606   120.71792168   177.34138243
 C      9   8   7     1.397661265579   119.62773279   357.67920956
 C     10   9   8     1.393199982379   120.05036642     3.95698483
 C     11  10   9     1.396644824857   120.28956830   358.05849633
 C      9   8   7     1.485258462928   122.98074281   178.79833460
 O     13   9   8     1.229562573032   119.10093848   144.39185929
 C     13   9   8     1.488942224467   122.05671454   322.93908595
 C     15  13   9     1.399946174894   121.96830222   331.11589444
 C     16  15  13     1.396465562268   120.08131109   178.48529192
 C     17  16  15     1.394883870758   120.05591482     1.25585581
 C     18  17  16     1.393505436337   120.10825184     1.16079036
 C     19  18  17     1.395959067129   119.99788894   358.56592723
 H      3   2   1     1.095616730933   111.15426080    61.00564773
 H      3   2   1     1.095727784671   111.37510439   301.07187460
 H      3   2   1     1.095860948342   111.75163987   180.25153798
 H      5   4   2     0.975691954410   114.81182227     3.70046596
 H      8   7   2     1.088840673423   119.72160773   359.48837669
 H     10   9   8     1.088448210665   120.22298929   183.75429645
 H     11  10   9     1.088778027423   119.63114204   178.76494144
 H     12  11  10     1.089485025597   118.40557904   179.75190701
 H     16  15  13     1.086087313893   121.25122609   357.40733596
 H     17  16  15     1.087259088672   120.11183264   180.81870084
 H     18  17  16     1.088074073627   119.96622544   180.19535966
 H     19  18  17     1.087271023710   120.12077408   178.57593392
 H     20  19  18     1.087903035063   119.62937797   179.30214783

---------------------------
INTERNAL COORDINATES (A.U.)
---------------------------
 H      0   0   0     0.000000000000     0.00000000     0.00000000
 C      1   0   0     2.078600618305     0.00000000     0.00000000
 C      2   1   0     2.904089265576   107.53381402     0.00000000
 C      2   1   3     2.892035460157   105.23595434   115.79135263
 O      4   2   1     2.566003096259   115.35018568    92.85366078
 O      4   2   1     2.316267430806   124.19453327   276.88965787
 C      2   1   3     2.892728026840   108.14407610   240.49557100
 C      7   2   1     2.667515179896   120.99547072     0.69770521
 C      8   7   2     2.659888074409   120.71792168   177.34138243
 C      9   8   7     2.641197019934   119.62773279   357.67920956
 C     10   9   8     2.632766416480   120.05036642     3.95698483
 C     11  10   9     2.639276225338   120.28956830   358.05849633
 C      9   8   7     2.806731733023   122.98074281   178.79833460
 O     13   9   8     2.323536527549   119.10093848   144.39185929
 C     13   9   8     2.813693033474   122.05671454   322.93908595
 C     15  13   9     2.645514872780   121.96830222   331.11589444
 C     16  15  13     2.638937468139   120.08131109   178.48529192
 C     17  16  15     2.635948504356   120.05591482     1.25585581
 C     18  17  16     2.633343640807   120.10825184     1.16079036
 C     19  18  17     2.637980331038   119.99788894   358.56592723
 H      3   2   1     2.070415569205   111.15426080    61.00564773
 H      3   2   1     2.070625430356   111.37510439   301.07187460
 H      3   2   1     2.070877073225   111.75163987   180.25153798
 H      5   4   2     1.843790584905   114.81182227     3.70046596
 H      8   7   2     2.057610676244   119.72160773   359.48837669
 H     10   9   8     2.056869029114   120.22298929   183.75429645
 H     11  10   9     2.057492292461   119.63114204   178.76494144
 H     12  11  10     2.058828325386   118.40557904   179.75190701
 H     16  15  13     2.052407580785   121.25122609   357.40733596
 H     17  16  15     2.054621914207   120.11183264   180.81870084
 H     18  17  16     2.056162012576   119.96622544   180.19535966
 H     19  18  17     2.054644468161   120.12077408   178.57593392
 H     20  19  18     2.055838796531   119.62937797   179.30214783

---------------------
BASIS SET INFORMATION
---------------------
There are 3 groups of distinct atoms

 Group   1 Type H   : 5s1p contracted to 3s1p pattern {311/1}
 Group   2 Type C   : 12s6p1d contracted to 5s4p1d pattern {63111/3111/1}
 Group   3 Type O   : 12s6p1d contracted to 5s4p1d pattern {63111/3111/1}

Atom   0H    basis set group =>   1
Atom   1C    basis set group =>   2
Atom   2C    basis set group =>   2
Atom   3C    basis set group =>   2
Atom   4O    basis set group =>   3
Atom   5O    basis set group =>   3
Atom   6C    basis set group =>   2
Atom   7C    basis set group =>   2
Atom   8C    basis set group =>   2
Atom   9C    basis set group =>   2
Atom  10C    basis set group =>   2
Atom  11C    basis set group =>   2
Atom  12C    basis set group =>   2
Atom  13O    basis set group =>   3
Atom  14C    basis set group =>   2
Atom  15C    basis set group =>   2
Atom  16C    basis set group =>   2
Atom  17C    basis set group =>   2
Atom  18C    basis set group =>   2
Atom  19C    basis set group =>   2
Atom  20H    basis set group =>   1
Atom  21H    basis set group =>   1
Atom  22H    basis set group =>   1
Atom  23H    basis set group =>   1
Atom  24H    basis set group =>   1
Atom  25H    basis set group =>   1
Atom  26H    basis set group =>   1
Atom  27H    basis set group =>   1
Atom  28H    basis set group =>   1
Atom  29H    basis set group =>   1
Atom  30H    basis set group =>   1
Atom  31H    basis set group =>   1
Atom  32H    basis set group =>   1
---------------------------------
AUXILIARY/J BASIS SET INFORMATION
---------------------------------
There are 3 groups of distinct atoms

 Group   1 Type H   : 5s2p1d contracted to 3s1p1d pattern {311/2/1}
 Group   2 Type C   : 12s5p4d2f1g contracted to 6s4p3d1f1g pattern {711111/2111/211/2/1}
 Group   3 Type O   : 12s5p4d2f1g contracted to 6s4p3d1f1g pattern {711111/2111/211/2/1}

Atom   0H    basis set group =>   1
Atom   1C    basis set group =>   2
Atom   2C    basis set group =>   2
Atom   3C    basis set group =>   2
Atom   4O    basis set group =>   3
Atom   5O    basis set group =>   3
Atom   6C    basis set group =>   2
Atom   7C    basis set group =>   2
Atom   8C    basis set group =>   2
Atom   9C    basis set group =>   2
Atom  10C    basis set group =>   2
Atom  11C    basis set group =>   2
Atom  12C    basis set group =>   2
Atom  13O    basis set group =>   3
Atom  14C    basis set group =>   2
Atom  15C    basis set group =>   2
Atom  16C    basis set group =>   2
Atom  17C    basis set group =>   2
Atom  18C    basis set group =>   2
Atom  19C    basis set group =>   2
Atom  20H    basis set group =>   1
Atom  21H    basis set group =>   1
Atom  22H    basis set group =>   1
Atom  23H    basis set group =>   1
Atom  24H    basis set group =>   1
Atom  25H    basis set group =>   1
Atom  26H    basis set group =>   1
Atom  27H    basis set group =>   1
Atom  28H    basis set group =>   1
Atom  29H    basis set group =>   1
Atom  30H    basis set group =>   1
Atom  31H    basis set group =>   1
Atom  32H    basis set group =>   1
------------------------------------------------------------------------------
                           ORCA GTO INTEGRAL CALCULATION
                           -- RI-GTO INTEGRALS CHOSEN --
------------------------------------------------------------------------------
------------------------------------------------------------------------------
                   ___                                                        
                  /   \      - P O W E R E D   B Y -                         
                 /     \                                                     
                 |  |  |   _    _      __       _____    __    __             
                 |  |  |  | |  | |    /  \     |  _  \  |  |  /  |          
                  \  \/   | |  | |   /    \    | | | |  |  | /  /          
                 / \  \   | |__| |  /  /\  \   | |_| |  |  |/  /          
                |  |  |   |  __  | /  /__\  \  |    /   |      \           
                |  |  |   | |  | | |   __   |  |    \   |  |\   \          
                \     /   | |  | | |  |  |  |  | |\  \  |  | \   \       
                 \___/    |_|  |_| |__|  |__|  |_| \__\ |__|  \__/        
                                                                              
                      - O R C A' S   B I G   F R I E N D -                    
                                      &                                       
                       - I N T E G R A L  F E E D E R -                       
                                                                              
 v1 FN, 2020, v2 2021                                                         
------------------------------------------------------------------------------


Reading SHARK input file Dexketoprofen\Dexketoprofen_B3LYP_6-311+G\Dexketoprofen_B3LYP_6-311+G.orcainp.SHARKINP.tmp ... ok
----------------------
SHARK INTEGRAL PACKAGE
----------------------

Number of atoms                             ...     33
Number of basis functions                   ...    502
Number of shells                            ...    246
Maximum angular momentum                    ...      2
Integral batch strategy                     ... SHARK/LIBINT Hybrid
RI-J (if used) integral strategy            ... SPLIT-RIJ (Revised 2003 algorithm where possible)
Printlevel                                  ...      1
Contraction scheme used                     ... SEGMENTED contraction
Coulomb Range Separation                    ... NOT USED
Exchange Range Separation                   ... NOT USED
Finite Nucleus Model                        ... NOT USED
Auxiliary Coulomb fitting basis             ... AVAILABLE
   # of basis functions in Aux-J            ...   1085
   # of shells in Aux-J                     ...    355
   Maximum angular momentum in Aux-J        ...      4
Auxiliary J/K fitting basis                 ... NOT available
Auxiliary Correlation fitting basis         ... NOT available
Auxiliary 'external' fitting basis          ... NOT available
Integral threshold                          ...     2.500000e-11
Primitive cut-off                           ...     2.500000e-12
Primitive pair pre-selection threshold      ...     2.500000e-12

Calculating pre-screening integrals         ... done (  0.0 sec) Dimension = 246
Organizing shell pair data                  ... done (  0.1 sec)
Shell pair information
Total number of shell pairs                 ...     30381
Shell pairs after pre-screening             ...     23525
Total number of primitive shell pairs       ...     99676
Primitive shell pairs kept                  ...     51703
          la=0 lb=0:   7120 shell pairs
          la=1 lb=0:   9748 shell pairs
          la=1 lb=1:   3392 shell pairs
          la=2 lb=0:   1840 shell pairs
          la=2 lb=1:   1298 shell pairs
          la=2 lb=2:    127 shell pairs

Calculating one electron integrals          ... done (  0.0 sec)
Calculating RI/J V-Matrix + Cholesky decomp.... done (  0.0 sec)
Calculating Nuclear repulsion               ... done (  0.0 sec) ENN=   1309.517151238816 Eh

SHARK setup successfully completed in   0.3 seconds

Maximum memory used throughout the entire GTOINT-calculation: 113.6 MB
-------------------------------------------------------------------------------
                                 ORCA SCF
-------------------------------------------------------------------------------

------------
SCF SETTINGS
------------
Hamiltonian:
 Density Functional     Method          .... DFT(GTOs)
 Exchange Functional    Exchange        .... B88
   X-Alpha parameter    XAlpha          ....  0.666667
   Becke's b parameter  XBeta           ....  0.004200
 Correlation Functional Correlation     .... LYP
 LDA part of GGA corr.  LDAOpt          .... VWN-5
 Gradients option       PostSCFGGA      .... off
 Hybrid DFT is turned on
   Fraction HF Exchange ScalHFX         ....  0.200000
   Scaling of DF-GGA-X  ScalDFX         ....  0.720000
   Scaling of DF-GGA-C  ScalDFC         ....  0.810000
   Scaling of DF-LDA-C  ScalLDAC        ....  1.000000
   Perturbative correction              ....  0.000000
   Density functional embedding theory  .... OFF
   NL short-range parameter             ....  4.800000
 RI-approximation to the Coulomb term is turned on
   Number of AuxJ basis functions       .... 1085
   RIJ-COSX (HFX calculated with COS-X)).... on


General Settings:
 Integral files         IntName         .... Dexketoprofen\Dexketoprofen_B3LYP_6-311+G\Dexketoprofen_B3LYP_6-311+G.orcainp
 Hartree-Fock type      HFTyp           .... RHF
 Total Charge           Charge          ....    0
 Multiplicity           Mult            ....    1
 Number of Electrons    NEL             ....  134
 Basis Dimension        Dim             ....  502
 Nuclear Repulsion      ENuc            ....   1309.5171512388 Eh

Convergence Acceleration:
 DIIS                   CNVDIIS         .... on
   Start iteration      DIISMaxIt       ....    12
   Startup error        DIISStart       ....  0.200000
   # of expansion vecs  DIISMaxEq       ....     5
   Bias factor          DIISBfac        ....   1.050
   Max. coefficient     DIISMaxC        ....  10.000
 Trust-Rad. Augm. Hess. CNVTRAH         .... auto
   Auto Start mean grad. ratio tolernc. ....  1.125000
   Auto Start start iteration           ....    20
   Auto Start num. interpolation iter.  ....    10
   Max. Number of Micro iterations      ....    16
   Max. Number of Macro iterations      .... Maxiter - #DIIS iter
   Number of Davidson start vectors     ....     2
   Converg. threshold I  (grad. norm)   ....   1.000e-05
   Converg. threshold II (energy diff.) ....   1.000e-08
   Grad. Scal. Fac. for Micro threshold ....   0.100
   Minimum threshold for Micro iter.    ....   0.010
   NR start threshold (gradient norm)   ....   0.001
   Initial trust radius                 ....   0.400
   Minimum AH scaling param. (alpha)    ....   1.000
   Maximum AH scaling param. (alpha)    .... 1000.000
   Orbital update algorithm             .... Taylor
   White noise on init. David. guess    .... on
   Maximum white noise                  ....   0.010
   Quad. conv. algorithm                .... NR
 SOSCF                  CNVSOSCF        .... on
   Start iteration      SOSCFMaxIt      ....   150
   Startup grad/error   SOSCFStart      ....  0.003300
 Level Shifting         CNVShift        .... on
   Level shift para.    LevelShift      ....    0.2500
   Turn off err/grad.   ShiftErr        ....    0.0010
 Zerner damping         CNVZerner       .... off
 Static damping         CNVDamp         .... on
   Fraction old density DampFac         ....    0.7000
   Max. Damping (<1)    DampMax         ....    0.9800
   Min. Damping (>=0)   DampMin         ....    0.0000
   Turn off err/grad.   DampErr         ....    0.1000
 Fernandez-Rico         CNVRico         .... off

SCF Procedure:
 Maximum # iterations   MaxIter         ....   125
 SCF integral mode      SCFMode         .... Direct
   Integral package                     .... SHARK and LIBINT hybrid scheme
 Reset frequency        DirectResetFreq ....    20
 Integral Threshold     Thresh          ....  2.500e-11 Eh
 Primitive CutOff       TCut            ....  2.500e-12 Eh

Convergence Tolerance:
 Convergence Check Mode ConvCheckMode   .... Total+1el-Energy
 Convergence forced     ConvForced      .... 0
 Energy Change          TolE            ....  1.000e-08 Eh
 1-El. energy change                    ....  1.000e-05 Eh
 Orbital Gradient       TolG            ....  1.000e-05
 Orbital Rotation angle TolX            ....  1.000e-05
 DIIS Error             TolErr          ....  5.000e-07


Diagonalization of the overlap matrix:
Smallest eigenvalue                        ... 5.952e-07
Time for diagonalization                   ...    0.014 sec
Threshold for overlap eigenvalues          ... 1.000e-08
Number of eigenvalues below threshold      ... 0
Time for construction of square roots      ...    0.011 sec
Total time needed                          ...    0.025 sec

Time for model grid setup =    0.388 sec

------------------------------
INITIAL GUESS: MODEL POTENTIAL
------------------------------
Loading Hartree-Fock densities                     ... done
Calculating cut-offs                               ... done
Initializing the effective Hamiltonian             ... done
Setting up the integral package (SHARK)            ... done
Starting the Coulomb interaction                   ... done (   0.6 sec)
Reading the grid                                   ... done
Mapping shells                                     ... done
Starting the XC term evaluation                    ... done (   0.5 sec)
  promolecular density results
     # of electrons  =    133.996224224
     EX              =   -110.971882187
     EC              =     -4.556020998
     EX+EC           =   -115.527903185
Transforming the Hamiltonian                       ... done (   0.0 sec)
Diagonalizing the Hamiltonian                      ... done (   0.0 sec)
Back transforming the eigenvectors                 ... done (   0.0 sec)
Now organizing SCF variables                       ... done
                      ------------------
                      INITIAL GUESS DONE (   1.6 sec)
                      ------------------
-------------------
DFT GRID GENERATION
-------------------

General Integration Accuracy     IntAcc      ... 4.388
Radial Grid Type                 RadialGrid  ... OptM3 with GC (2021)
Angular Grid (max. ang.)         AngularGrid ... 4 (Lebedev-302)
Angular grid pruning method      GridPruning ... 4 (adaptive)
Weight generation scheme         WeightScheme... Becke
Basis function cutoff            BFCut       ... 1.0000e-11
Integration weight cutoff        WCut        ... 1.0000e-14
Angular grids for H and He will be reduced by one unit
Partially contracted basis set               ... off
Rotationally invariant grid construction     ... off

Total number of grid points                  ...   163068
Total number of batches                      ...     2566
Average number of points per batch           ...       63
Average number of grid points per atom       ...     4941
Time for grid setup =    1.289 sec

--------------------
COSX GRID GENERATION
--------------------

GRIDX 1
-------
General Integration Accuracy     IntAcc      ... 3.816
Radial Grid Type                 RadialGrid  ... OptM3 with GC (2021)
Angular Grid (max. ang.)         AngularGrid ... 1 (Lebedev-50)
Angular grid pruning method      GridPruning ... 4 (adaptive)
Weight generation scheme         WeightScheme... Becke
Basis function cutoff            BFCut       ... 1.0000e-11
Integration weight cutoff        WCut        ... 1.0000e-14
Angular grids for H and He will be reduced by one unit
Partially contracted basis set               ... on
Rotationally invariant grid construction     ... off

Total number of grid points                  ...    20776
Total number of batches                      ...      341
Average number of points per batch           ...       60
Average number of grid points per atom       ...      630
UseSFitting                                  ... on

GRIDX 2
-------
General Integration Accuracy     IntAcc      ... 4.020
Radial Grid Type                 RadialGrid  ... OptM3 with GC (2021)
Angular Grid (max. ang.)         AngularGrid ... 2 (Lebedev-110)
Angular grid pruning method      GridPruning ... 4 (adaptive)
Weight generation scheme         WeightScheme... Becke
Basis function cutoff            BFCut       ... 1.0000e-11
Integration weight cutoff        WCut        ... 1.0000e-14
Angular grids for H and He will be reduced by one unit
Partially contracted basis set               ... on
Rotationally invariant grid construction     ... off

Total number of grid points                  ...    48969
Total number of batches                      ...      782
Average number of points per batch           ...       62
Average number of grid points per atom       ...     1484
UseSFitting                                  ... on

GRIDX 3
-------
General Integration Accuracy     IntAcc      ... 4.338
Radial Grid Type                 RadialGrid  ... OptM3 with GC (2021)
Angular Grid (max. ang.)         AngularGrid ... 3 (Lebedev-194)
Angular grid pruning method      GridPruning ... 4 (adaptive)
Weight generation scheme         WeightScheme... Becke
Basis function cutoff            BFCut       ... 1.0000e-11
Integration weight cutoff        WCut        ... 1.0000e-14
Angular grids for H and He will be reduced by one unit
Partially contracted basis set               ... on
Rotationally invariant grid construction     ... off

Total number of grid points                  ...   105597
Total number of batches                      ...     1666
Average number of points per batch           ...       63
Average number of grid points per atom       ...     3200
UseSFitting                                  ... on

Time for X-Grid setup             =    2.031 sec


--------------------
CPCM SOLVATION MODEL
--------------------
CPCM parameters:
  Epsilon                                         ...      80.4000
  Refrac                                          ...       1.3300
  Rsolv                                           ...       1.3000
  Surface type                                    ... GAUSSIAN VDW
  Epsilon function type                           ...         CPCM
Radii:
 Radius for H  used is    2.4944 Bohr (=   1.3200 Ang.)
 Radius for C  used is    3.8550 Bohr (=   2.0400 Ang.)
 Radius for O  used is    3.4469 Bohr (=   1.8240 Ang.)
Calculating surface                               ...        done! (  0.0s)
GEPOL surface points                              ...         1786
GEPOL Volume                                      ...    2086.5295
GEPOL Surface-area                                ...    1082.8958
Calculating surface distance matrix               ...        done! (  0.0s)
Performing Cholesky decomposition & store         ...        done! (  0.0s)
Overall time for CPCM initialization              ...                 0.1s
--------------
SCF ITERATIONS
--------------
ITER       Energy         Delta-E        Max-DP      RMS-DP      [F,P]     Damp
               ***  Starting incremental Fock matrix formation  ***
  0   -843.0661964692   0.000000000000 2.53474217  0.01112781  0.3231163 0.7000
  1   -843.3076846626  -0.241488193427 0.98031058  0.00600740  0.1179506 0.7000
                               ***Turning on DIIS***
  2   -843.3987868437  -0.091102181036 1.44096894  0.00983348  0.0372719 0.0000
  3   -843.5505046685  -0.151717824882 1.13422103  0.00579850  0.0573746 0.0000
  4   -843.5790905159  -0.028585847374 0.40944851  0.00287862  0.0212115 0.0000
  5   -843.5815386606  -0.002448144649 0.12793648  0.00088885  0.0071675 0.0000
                      *** Initiating the SOSCF procedure ***
                           *** Shutting down DIIS ***
                      *** Re-Reading the Fockian *** 
                      *** Removing any level shift *** 
ITER      Energy       Delta-E        Grad      Rot      Max-DP    RMS-DP
  6   -843.58165618  -0.0001175194  0.000263  0.000263  0.181240  0.000819
               *** Restarting incremental Fock matrix formation ***
  7   -843.58163702   0.0000191553  0.000142  0.000361  0.367680  0.001452
  8   -843.58163630   0.0000007238  0.000226  0.000279  0.117757  0.000623
  9   -843.58163908  -0.0000027835  0.000046  0.000104  0.101045  0.000592
 10   -843.58163898   0.0000001044  0.000059  0.000067  0.114390  0.000429
 11   -843.58163916  -0.0000001825  0.000012  0.000016  0.207638  0.001355
 12   -843.58163918  -0.0000000158  0.000009  0.000010  0.064332  0.000533
 13   -843.58163916   0.0000000221  0.000005  0.000009  0.251003  0.001638
 14   -843.58163914   0.0000000143  0.000005  0.000005  0.344272  0.001150
 15   -843.58163914   0.0000000056  0.000005  0.000007  0.168553  0.001201
 16   -843.58163916  -0.0000000225  0.000004  0.000003  0.076845  0.000578
 17   -843.58163918  -0.0000000173  0.000006  0.000010  0.356224  0.002052
 18   -843.58163916   0.0000000113  0.000012  0.000007  0.201579  0.001336
 19   -843.58163917  -0.0000000072  0.000005  0.000010  0.875343  0.002739

 WARNING: the maximum gradient error descreased on average only by a factor   1.0
          during the last 20 iterations

                      *** Initiating the TRAH-SCF procedure ***

              ***Rediagonalizing the Fockian in SOSCF/NRSCF***

TRAH GRIDX
----------

General Integration Accuracy     IntAcc      ... 3.067
Radial Grid Type                 RadialGrid  ... OptM3 with GC (2021)
Angular Grid (max. ang.)         AngularGrid ... 1 (Lebedev-50)
Angular grid pruning method      GridPruning ... 4 (adaptive)
Weight generation scheme         WeightScheme... Becke
Basis function cutoff            BFCut       ... 1.0000e-11
Integration weight cutoff        WCut        ... 1.0000e-14
Angular grids for H and He will be reduced by one unit
Partially contracted basis set               ... on
Rotationally invariant grid construction     ... off

Total number of grid points                  ...    11024
Total number of batches                      ...      189
Average number of points per batch           ...       58
Average number of grid points per atom       ...      334


TRAH GRID
---------

General Integration Accuracy     IntAcc      ... 3.467
Radial Grid Type                 RadialGrid  ... OptM3 with GC (2021)
Angular Grid (max. ang.)         AngularGrid ... 1 (Lebedev-50)
Angular grid pruning method      GridPruning ... 4 (adaptive)
Weight generation scheme         WeightScheme... Becke
Basis function cutoff            BFCut       ... 1.0000e-11
Integration weight cutoff        WCut        ... 1.0000e-14
Angular grids for H and He will be reduced by one unit
Partially contracted basis set               ... off
Rotationally invariant grid construction     ... off

Total number of grid points                  ...    24106
Total number of batches                      ...      393
Average number of points per batch           ...       61
Average number of grid points per atom       ...      730

 --------------------------------------------------------------------------------------------
   Iter.        energy            ||Error||_2        Shift      TRadius  Mac/Mic        Rej.
 --------------------------------------------------------------------------------------------
    0       -843.581639162579     7.142608e-04                     0.400 (TRAH MAcro)   No
    0     dE    -4.929725e-08     9.422605e-04    -9.8596e-08      0.000 (TRAH MIcro)
    0     dE    -6.714653e-08     1.535185e-04    -1.3429e-07      0.000 (TRAH MIcro)
    0     dE    -6.803732e-08     2.945330e-05    -1.3608e-07      0.000 (TRAH MIcro)
    0     dE    -6.806694e-08     1.139132e-05    -1.3613e-07      0.000 (TRAH MIcro)
    0     dE    -6.806913e-08     4.297955e-06    -1.3614e-07      0.000 (TRAH MIcro)
    1       -843.581639228113     4.391309e-06                           (NR   MAcro)
    1     dE    -4.381124e-13     1.690478e-06                           (NR   MIcro)
    1     dE    -5.242276e-13     3.307168e-07                           (NR   MIcro)
    2       -843.581639228127     3.307376e-07                           (NR   MAcro)

               *****************************************************
               *                     SUCCESS                       *
               *           SCF CONVERGED AFTER  30 CYCLES          *
               *****************************************************

Old exchange energy                            =    -22.518877010 Eh
New exchange energy                            =    -22.518915911 Eh
Exchange energy change after final integration =     -0.000038901 Eh
Total energy after final integration           =   -843.581678129 Eh
Final COS-X integration done in                =    41.333 sec

----------------
TOTAL SCF ENERGY
----------------

Total Energy       :         -843.58167813 Eh          -22955.02447 eV

Components:
Nuclear Repulsion  :         1309.51715124 Eh           35633.77327 eV
Electronic Energy  :        -2153.09882937 Eh          -58588.79774 eV
One Electron Energy:        -3744.61125066 Eh         -101896.05243 eV
Two Electron Energy:         1591.51242129 Eh           43307.25468 eV
Max COSX asymmetry :            0.00001670 Eh               0.00045 eV
CPCM Dielectric    :           -0.03190577 Eh              -0.86820 eV

Virial components:
Potential Energy   :        -1683.84020709 Eh          -45819.62146 eV
Kinetic Energy     :          840.25852896 Eh           22864.59699 eV
Virial Ratio       :            2.00395491


DFT components:
N(Alpha)           :       67.000078156534 electrons
N(Beta)            :       67.000078156534 electrons
N(Total)           :      134.000156313067 electrons
E(X)               :      -89.532377517857 Eh       
E(C)               :       -5.374615902666 Eh       
E(XC)              :      -94.906993420523 Eh       
DFET-embed. en.    :        0.000000000000 Eh       
CPCM Solvation Model Properties:
Surface-charge          :           -0.03305465
Charge-correction       :            0.00008767 Eh               0.00239 eV
Free-energy (cav+disp)  :  This term is not implemented in the current solvation scheme

---------------
SCF CONVERGENCE
---------------

  Last Energy change         ...   -1.3301e-11  Tolerance :   1.0000e-08
  Last Orbital Gradient      ...    3.3074e-07  Tolerance :   1.0000e-05
  Last Orbital Rotation      ...    5.2596e-07

             **** THE GBW FILE WAS UPDATED (Dexketoprofen\Dexketoprofen_B3LYP_6-311+G\Dexketoprofen_B3LYP_6-311+G.orcainp.gbw) ****
             **** DENSITY Dexketoprofen\Dexketoprofen_B3LYP_6-311+G\Dexketoprofen_B3LYP_6-311+G.orcainp.scfp WAS UPDATED ****
             **** ENERGY FILE WAS UPDATED (Dexketoprofen\Dexketoprofen_B3LYP_6-311+G\Dexketoprofen_B3LYP_6-311+G.orcainp.en.tmp) ****
             **** THE GBW FILE WAS UPDATED (Dexketoprofen\Dexketoprofen_B3LYP_6-311+G\Dexketoprofen_B3LYP_6-311+G.orcainp.gbw) ****
             **** DENSITY Dexketoprofen\Dexketoprofen_B3LYP_6-311+G\Dexketoprofen_B3LYP_6-311+G.orcainp.scfp WAS UPDATED ****
----------------
ORBITAL ENERGIES
----------------

  NO   OCC          E(Eh)            E(eV) 
   0   2.0000     -19.178503      -521.8736 
   1   2.0000     -19.127665      -520.4902 
   2   2.0000     -19.120211      -520.2874 
   3   2.0000     -10.323626      -280.9201 
   4   2.0000     -10.273468      -279.5553 
   5   2.0000     -10.206679      -277.7378 
   6   2.0000     -10.203379      -277.6481 
   7   2.0000     -10.197326      -277.4833 
   8   2.0000     -10.195532      -277.4345 
   9   2.0000     -10.193990      -277.3926 
  10   2.0000     -10.190996      -277.3111 
  11   2.0000     -10.188890      -277.2538 
  12   2.0000     -10.188518      -277.2437 
  13   2.0000     -10.186993      -277.2022 
  14   2.0000     -10.186083      -277.1774 
  15   2.0000     -10.185287      -277.1558 
  16   2.0000     -10.182544      -277.0811 
  17   2.0000     -10.182382      -277.0767 
  18   2.0000     -10.164329      -276.5854 
  19   2.0000      -1.110508       -30.2185 
  20   2.0000      -1.053212       -28.6593 
  21   2.0000      -1.031224       -28.0610 
  22   2.0000      -0.879054       -23.9203 
  23   2.0000      -0.869417       -23.6580 
  24   2.0000      -0.815710       -22.1966 
  25   2.0000      -0.783347       -21.3160 
  26   2.0000      -0.761038       -20.7089 
  27   2.0000      -0.756233       -20.5781 
  28   2.0000      -0.743932       -20.2434 
  29   2.0000      -0.668424       -18.1887 
  30   2.0000      -0.662988       -18.0408 
  31   2.0000      -0.629804       -17.1378 
  32   2.0000      -0.627077       -17.0636 
  33   2.0000      -0.615745       -16.7553 
  34   2.0000      -0.602606       -16.3978 
  35   2.0000      -0.566920       -15.4267 
  36   2.0000      -0.541641       -14.7388 
  37   2.0000      -0.515461       -14.0264 
  38   2.0000      -0.508892       -13.8477 
  39   2.0000      -0.488243       -13.2858 
  40   2.0000      -0.479486       -13.0475 
  41   2.0000      -0.473589       -12.8870 
  42   2.0000      -0.469205       -12.7677 
  43   2.0000      -0.459526       -12.5043 
  44   2.0000      -0.449468       -12.2306 
  45   2.0000      -0.442863       -12.0509 
  46   2.0000      -0.437076       -11.8934 
  47   2.0000      -0.433251       -11.7894 
  48   2.0000      -0.431128       -11.7316 
  49   2.0000      -0.417683       -11.3657 
  50   2.0000      -0.408850       -11.1254 
  51   2.0000      -0.398817       -10.8524 
  52   2.0000      -0.379473       -10.3260 
  53   2.0000      -0.375512       -10.2182 
  54   2.0000      -0.370079       -10.0704 
  55   2.0000      -0.364895        -9.9293 
  56   2.0000      -0.363036        -9.8787 
  57   2.0000      -0.359948        -9.7947 
  58   2.0000      -0.352697        -9.5974 
  59   2.0000      -0.347488        -9.4556 
  60   2.0000      -0.335451        -9.1281 
  61   2.0000      -0.302415        -8.2291 
  62   2.0000      -0.278988        -7.5917 
  63   2.0000      -0.272690        -7.4203 
  64   2.0000      -0.266742        -7.2584 
  65   2.0000      -0.264798        -7.2055 
  66   2.0000      -0.259176        -7.0525 
  67   0.0000      -0.081175        -2.2089 
  68   0.0000      -0.034678        -0.9436 
  69   0.0000      -0.032377        -0.8810 
  70   0.0000      -0.022139        -0.6024 
  71   0.0000      -0.018013        -0.4902 
  72   0.0000       0.000280         0.0076 
  73   0.0000       0.014110         0.3839 
  74   0.0000       0.019000         0.5170 
  75   0.0000       0.023981         0.6525 
  76   0.0000       0.029623         0.8061 
  77   0.0000       0.030479         0.8294 
  78   0.0000       0.035879         0.9763 
  79   0.0000       0.040701         1.1075 
  80   0.0000       0.041334         1.1248 
  81   0.0000       0.048070         1.3081 
  82   0.0000       0.050770         1.3815 
  83   0.0000       0.055272         1.5040 
  84   0.0000       0.062947         1.7129 
  85   0.0000       0.067137         1.8269 
  86   0.0000       0.070366         1.9147 
  87   0.0000       0.075989         2.0678 
  88   0.0000       0.077747         2.1156 
  89   0.0000       0.082721         2.2510 
  90   0.0000       0.088042         2.3957 
  91   0.0000       0.092324         2.5123 
  92   0.0000       0.095707         2.6043 
  93   0.0000       0.099701         2.7130 
  94   0.0000       0.105103         2.8600 
  95   0.0000       0.106574         2.9000 
  96   0.0000       0.110703         3.0124 
  97   0.0000       0.115769         3.1502 
  98   0.0000       0.118618         3.2278 
  99   0.0000       0.121509         3.3064 
 100   0.0000       0.125778         3.4226 
 101   0.0000       0.130940         3.5631 
 102   0.0000       0.135918         3.6985 
 103   0.0000       0.138726         3.7749 
 104   0.0000       0.140727         3.8294 
 105   0.0000       0.145696         3.9646 
 106   0.0000       0.148943         4.0529 
 107   0.0000       0.154711         4.2099 
 108   0.0000       0.158794         4.3210 
 109   0.0000       0.163318         4.4441 
 110   0.0000       0.166288         4.5249 
 111   0.0000       0.169717         4.6182 
 112   0.0000       0.170784         4.6473 
 113   0.0000       0.174195         4.7401 
 114   0.0000       0.177367         4.8264 
 115   0.0000       0.182501         4.9661 
 116   0.0000       0.189149         5.1470 
 117   0.0000       0.191611         5.2140 
 118   0.0000       0.194799         5.3007 
 119   0.0000       0.197516         5.3747 
 120   0.0000       0.201212         5.4753 
 121   0.0000       0.202965         5.5230 
 122   0.0000       0.204053         5.5526 
 123   0.0000       0.205867         5.6019 
 124   0.0000       0.207866         5.6563 
 125   0.0000       0.212263         5.7760 
 126   0.0000       0.215804         5.8723 
 127   0.0000       0.219542         5.9740 
 128   0.0000       0.220994         6.0136 
 129   0.0000       0.221681         6.0323 
 130   0.0000       0.228053         6.2057 
 131   0.0000       0.228631         6.2214 
 132   0.0000       0.233732         6.3602 
 133   0.0000       0.237643         6.4666 
 134   0.0000       0.241284         6.5657 
 135   0.0000       0.243223         6.6184 
 136   0.0000       0.244626         6.6566 
 137   0.0000       0.247036         6.7222 
 138   0.0000       0.251866         6.8536 
 139   0.0000       0.254401         6.9226 
 140   0.0000       0.256654         6.9839 
 141   0.0000       0.260136         7.0787 
 142   0.0000       0.265088         7.2134 
 143   0.0000       0.266883         7.2623 
 144   0.0000       0.269632         7.3371 
 145   0.0000       0.273996         7.4558 
 146   0.0000       0.278557         7.5799 
 147   0.0000       0.283151         7.7049 
 148   0.0000       0.286914         7.8073 
 149   0.0000       0.289093         7.8666 
 150   0.0000       0.291617         7.9353 
 151   0.0000       0.293738         7.9930 
 152   0.0000       0.297429         8.0935 
 153   0.0000       0.303116         8.2482 
 154   0.0000       0.304129         8.2758 
 155   0.0000       0.307675         8.3723 
 156   0.0000       0.311618         8.4795 
 157   0.0000       0.317863         8.6495 
 158   0.0000       0.322717         8.7816 
 159   0.0000       0.323712         8.8086 
 160   0.0000       0.328812         8.9474 
 161   0.0000       0.331203         9.0125 
 162   0.0000       0.334620         9.1055 
 163   0.0000       0.335381         9.1262 
 164   0.0000       0.340948         9.2777 
 165   0.0000       0.341216         9.2850 
 166   0.0000       0.347427         9.4540 
 167   0.0000       0.358693         9.7605 
 168   0.0000       0.361941         9.8489 
 169   0.0000       0.369107        10.0439 
 170   0.0000       0.372151        10.1267 
 171   0.0000       0.381493        10.3810 
 172   0.0000       0.392334        10.6759 
 173   0.0000       0.404348        11.0029 
 174   0.0000       0.408287        11.1101 
 175   0.0000       0.413335        11.2474 
 176   0.0000       0.432274        11.7628 
 177   0.0000       0.440460        11.9855 
 178   0.0000       0.448421        12.2021 
 179   0.0000       0.458226        12.4690 
 180   0.0000       0.472762        12.8645 
 181   0.0000       0.479610        13.0508 
 182   0.0000       0.487836        13.2747 
 183   0.0000       0.492683        13.4066 
 184   0.0000       0.502888        13.6843 
 185   0.0000       0.512882        13.9562 
 186   0.0000       0.523569        14.2470 
 187   0.0000       0.529000        14.3948 
 188   0.0000       0.534658        14.5488 
 189   0.0000       0.538688        14.6584 
 190   0.0000       0.543577        14.7915 
 191   0.0000       0.547965        14.9109 
 192   0.0000       0.555379        15.1126 
 193   0.0000       0.559265        15.2184 
 194   0.0000       0.570767        15.5314 
 195   0.0000       0.575541        15.6613 
 196   0.0000       0.581748        15.8302 
 197   0.0000       0.591281        16.0896 
 198   0.0000       0.595565        16.2061 
 199   0.0000       0.602173        16.3859 
 200   0.0000       0.614656        16.7256 
 201   0.0000       0.620437        16.8830 
 202   0.0000       0.625881        17.0311 
 203   0.0000       0.629345        17.1254 
 204   0.0000       0.644858        17.5475 
 205   0.0000       0.646272        17.5860 
 206   0.0000       0.648912        17.6578 
 207   0.0000       0.656994        17.8777 
 208   0.0000       0.663111        18.0442 
 209   0.0000       0.668791        18.1987 
 210   0.0000       0.673040        18.3144 
 211   0.0000       0.682569        18.5736 
 212   0.0000       0.688342        18.7308 
 213   0.0000       0.692364        18.8402 
 214   0.0000       0.697917        18.9913 
 215   0.0000       0.700967        19.0743 
 216   0.0000       0.703557        19.1448 
 217   0.0000       0.708703        19.2848 
 218   0.0000       0.710882        19.3441 
 219   0.0000       0.716056        19.4849 
 220   0.0000       0.726323        19.7643 
 221   0.0000       0.727287        19.7905 
 222   0.0000       0.731638        19.9089 
 223   0.0000       0.733890        19.9701 
 224   0.0000       0.744131        20.2488 
 225   0.0000       0.748692        20.3729 
 226   0.0000       0.757204        20.6046 
 227   0.0000       0.758117        20.6294 
 228   0.0000       0.767207        20.8768 
 229   0.0000       0.772873        21.0309 
 230   0.0000       0.774780        21.0828 
 231   0.0000       0.793871        21.6023 
 232   0.0000       0.796903        21.6848 
 233   0.0000       0.815530        22.1917 
 234   0.0000       0.823019        22.3955 
 235   0.0000       0.827007        22.5040 
 236   0.0000       0.836260        22.7558 
 237   0.0000       0.843841        22.9621 
 238   0.0000       0.848204        23.0808 
 239   0.0000       0.852558        23.1993 
 240   0.0000       0.862906        23.4809 
 241   0.0000       0.865857        23.5612 
 242   0.0000       0.882608        24.0170 
 243   0.0000       0.887759        24.1572 
 244   0.0000       0.888660        24.1817 
 245   0.0000       0.907223        24.6868 
 246   0.0000       0.919262        25.0144 
 247   0.0000       0.929712        25.2988 
 248   0.0000       0.933414        25.3995 
 249   0.0000       0.949759        25.8443 
 250   0.0000       0.954305        25.9680 
 251   0.0000       0.956053        26.0155 
 252   0.0000       0.962759        26.1980 
 253   0.0000       0.989070        26.9140 
 254   0.0000       1.006565        27.3900 
 255   0.0000       1.010096        27.4861 
 256   0.0000       1.016264        27.6539 
 257   0.0000       1.034344        28.1459 
 258   0.0000       1.037784        28.2395 
 259   0.0000       1.042870        28.3779 
 260   0.0000       1.051833        28.6218 
 261   0.0000       1.057976        28.7890 
 262   0.0000       1.067289        29.0424 
 263   0.0000       1.084686        29.5158 
 264   0.0000       1.086033        29.5525 
 265   0.0000       1.102214        29.9928 
 266   0.0000       1.121800        30.5257 
 267   0.0000       1.127659        30.6852 
 268   0.0000       1.132476        30.8162 
 269   0.0000       1.144693        31.1487 
 270   0.0000       1.157019        31.4841 
 271   0.0000       1.167755        31.7762 
 272   0.0000       1.175844        31.9964 
 273   0.0000       1.185463        32.2581 
 274   0.0000       1.200911        32.6785 
 275   0.0000       1.206853        32.8401 
 276   0.0000       1.211835        32.9757 
 277   0.0000       1.221177        33.2299 
 278   0.0000       1.241418        33.7807 
 279   0.0000       1.258762        34.2527 
 280   0.0000       1.275662        34.7125 
 281   0.0000       1.281709        34.8771 
 282   0.0000       1.298720        35.3400 
 283   0.0000       1.306575        35.5537 
 284   0.0000       1.317322        35.8462 
 285   0.0000       1.331328        36.2273 
 286   0.0000       1.340496        36.4768 
 287   0.0000       1.387359        37.7519 
 288   0.0000       1.407592        38.3025 
 289   0.0000       1.451914        39.5086 
 290   0.0000       1.470974        40.0273 
 291   0.0000       1.473087        40.0847 
 292   0.0000       1.489348        40.5272 
 293   0.0000       1.498170        40.7673 
 294   0.0000       1.499499        40.8035 
 295   0.0000       1.507937        41.0331 
 296   0.0000       1.512187        41.1487 
 297   0.0000       1.519883        41.3581 
 298   0.0000       1.535123        41.7728 
 299   0.0000       1.536990        41.8236 
 300   0.0000       1.548311        42.1317 
 301   0.0000       1.557403        42.3791 
 302   0.0000       1.560199        42.4552 
 303   0.0000       1.564912        42.5834 
 304   0.0000       1.568003        42.6675 
 305   0.0000       1.572407        42.7874 
 306   0.0000       1.580515        43.0080 
 307   0.0000       1.585404        43.1410 
 308   0.0000       1.593609        43.3643 
 309   0.0000       1.615067        43.9482 
 310   0.0000       1.627922        44.2980 
 311   0.0000       1.634462        44.4760 
 312   0.0000       1.641020        44.6544 
 313   0.0000       1.657378        45.0996 
 314   0.0000       1.663349        45.2620 
 315   0.0000       1.680144        45.7190 
 316   0.0000       1.687814        45.9278 
 317   0.0000       1.690100        45.9900 
 318   0.0000       1.699912        46.2570 
 319   0.0000       1.725341        46.9489 
 320   0.0000       1.727447        47.0062 
 321   0.0000       1.737677        47.2846 
 322   0.0000       1.739026        47.3213 
 323   0.0000       1.759229        47.8711 
 324   0.0000       1.764586        48.0168 
 325   0.0000       1.772167        48.2231 
 326   0.0000       1.777364        48.3645 
 327   0.0000       1.786349        48.6090 
 328   0.0000       1.789546        48.6960 
 329   0.0000       1.804715        49.1088 
 330   0.0000       1.818431        49.4820 
 331   0.0000       1.819782        49.5188 
 332   0.0000       1.832908        49.8759 
 333   0.0000       1.837957        50.0133 
 334   0.0000       1.864069        50.7239 
 335   0.0000       1.877473        51.0886 
 336   0.0000       1.891853        51.4799 
 337   0.0000       1.904861        51.8339 
 338   0.0000       1.913449        52.0676 
 339   0.0000       1.926784        52.4305 
 340   0.0000       1.935528        52.6684 
 341   0.0000       1.942410        52.8557 
 342   0.0000       1.945461        52.9387 
 343   0.0000       1.961461        53.3741 
 344   0.0000       1.962353        53.3983 
 345   0.0000       1.967322        53.5336 
 346   0.0000       1.977887        53.8211 
 347   0.0000       1.978655        53.8419 
 348   0.0000       1.987995        54.0961 
 349   0.0000       2.010321        54.7036 
 350   0.0000       2.015685        54.8496 
 351   0.0000       2.036437        55.4143 
 352   0.0000       2.039073        55.4860 
 353   0.0000       2.049901        55.7806 
 354   0.0000       2.064985        56.1911 
 355   0.0000       2.082247        56.6608 
 356   0.0000       2.091303        56.9073 
 357   0.0000       2.105914        57.3048 
 358   0.0000       2.115884        57.5761 
 359   0.0000       2.149482        58.4904 
 360   0.0000       2.165801        58.9344 
 361   0.0000       2.176286        59.2198 
 362   0.0000       2.195837        59.7518 
 363   0.0000       2.199976        59.8644 
 364   0.0000       2.227570        60.6153 
 365   0.0000       2.244121        61.0656 
 366   0.0000       2.298823        62.5542 
 367   0.0000       2.317027        63.0495 
 368   0.0000       2.339912        63.6722 
 369   0.0000       2.349274        63.9270 
 370   0.0000       2.367130        64.4129 
 371   0.0000       2.379850        64.7590 
 372   0.0000       2.393749        65.1372 
 373   0.0000       2.405911        65.4682 
 374   0.0000       2.406802        65.4924 
 375   0.0000       2.418242        65.8037 
 376   0.0000       2.430762        66.1444 
 377   0.0000       2.435879        66.2836 
 378   0.0000       2.451784        66.7164 
 379   0.0000       2.491017        67.7840 
 380   0.0000       2.513810        68.4043 
 381   0.0000       2.527547        68.7781 
 382   0.0000       2.579798        70.1999 
 383   0.0000       2.599328        70.7313 
 384   0.0000       2.620121        71.2971 
 385   0.0000       2.633636        71.6649 
 386   0.0000       2.644586        71.9628 
 387   0.0000       2.658208        72.3335 
 388   0.0000       2.671684        72.7002 
 389   0.0000       2.674925        72.7884 
 390   0.0000       2.687480        73.1301 
 391   0.0000       2.693618        73.2971 
 392   0.0000       2.702624        73.5421 
 393   0.0000       2.703795        73.5740 
 394   0.0000       2.720554        74.0301 
 395   0.0000       2.724297        74.1319 
[...]
      px      :     0.005623
      py      :     0.013203
 28 H s       :     0.796535  s :     0.796535
      pz      :     0.005662  p :     0.025529
      px      :     0.006032
      py      :     0.013835
 29 H s       :     0.812317  s :     0.812317
      pz      :     0.005988  p :     0.025099
      px      :     0.014706
      py      :     0.004404
 30 H s       :     0.809504  s :     0.809504
      pz      :     0.005574  p :     0.024888
      px      :     0.008144
      py      :     0.011169
 31 H s       :     0.811173  s :     0.811173
      pz      :     0.005689  p :     0.025050
      px      :     0.005868
      py      :     0.013494
 32 H s       :     0.815421  s :     0.815421
      pz      :     0.005970  p :     0.025494
      px      :     0.014965
      py      :     0.004559


                     *******************************
                     * LOEWDIN POPULATION ANALYSIS *
                     *******************************

----------------------
LOEWDIN ATOMIC CHARGES
----------------------
   0 H :    0.108219
   1 C :   -0.112980
   2 C :   -0.079885
   3 C :    0.001737
   4 O :   -0.053935
   5 O :   -0.216627
   6 C :   -0.100777
   7 C :   -0.030310
   8 C :   -0.102364
   9 C :   -0.018676
  10 C :   -0.043953
  11 C :   -0.033227
  12 C :    0.030079
  13 O :   -0.226189
  14 C :   -0.114417
  15 C :   -0.035886
  16 C :   -0.060303
  17 C :   -0.043670
  18 C :   -0.059898
  19 C :   -0.023173
  20 H :    0.071544
  21 H :    0.074607
  22 H :    0.078302
  23 H :    0.152314
  24 H :    0.108373
  25 H :    0.097107
  26 H :    0.085854
  27 H :    0.100488
  28 H :    0.099148
  29 H :    0.084352
  30 H :    0.084031
  31 H :    0.083880
  32 H :    0.096234

-------------------------------
LOEWDIN REDUCED ORBITAL CHARGES
-------------------------------
  0 H s       :     0.820078  s :     0.820078
      pz      :     0.015913  p :     0.071703
      px      :     0.014769
      py      :     0.041021
  1 C s       :     2.778492  s :     2.778492
      pz      :     1.061605  p :     3.183567
      px      :     1.046665
      py      :     1.075297
      dz2     :     0.041882  d :     0.150921
      dxz     :     0.030803
      dyz     :     0.018136
      dx2y2   :     0.026071
      dxy     :     0.034028
  2 C s       :     2.788512  s :     2.788512
      pz      :     1.061157  p :     3.196696
      px      :     1.054761
      py      :     1.080778
      dz2     :     0.027220  d :     0.094677
      dxz     :     0.019874
      dyz     :     0.007907
      dx2y2   :     0.016967
      dxy     :     0.022708
  3 C s       :     2.775004  s :     2.775004
      pz      :     0.798758  p :     2.805544
      px      :     0.999121
      py      :     1.007665
      dz2     :     0.052325  d :     0.417715
      dxz     :     0.061281
      dyz     :     0.067767
      dx2y2   :     0.094635
      dxy     :     0.141707
  4 O s       :     3.387691  s :     3.387691
      pz      :     1.637504  p :     4.647101
      px      :     1.588712
      py      :     1.420884
      dz2     :     0.002102  d :     0.019143
      dxz     :     0.004039
      dyz     :     0.002214
      dx2y2   :     0.006475
      dxy     :     0.004314
  5 O s       :     3.493134  s :     3.493134
      pz      :     1.454939  p :     4.699625
      px      :     1.756520
      py      :     1.488167
      dz2     :     0.002920  d :     0.023868
      dxz     :     0.000880
      dyz     :     0.008174
      dx2y2   :     0.008084
      dxy     :     0.003810
  6 C s       :     2.781284  s :     2.781284
      pz      :     1.057579  p :     3.155913
      px      :     0.961964
      py      :     1.136370
      dz2     :     0.040663  d :     0.163580
      dxz     :     0.019094
      dyz     :     0.052220
      dx2y2   :     0.026746
      dxy     :     0.024858
  7 C s       :     2.774433  s :     2.774433
      pz      :     1.079880  p :     3.122560
      px      :     0.959583
      py      :     1.083097
      dz2     :     0.033654  d :     0.133316
      dxz     :     0.018872
      dyz     :     0.046289
      dx2y2   :     0.018705
      dxy     :     0.015798
  8 C s       :     2.775261  s :     2.775261
      pz      :     1.095239  p :     3.168921
      px      :     0.992645
      py      :     1.081037
      dz2     :     0.037942  d :     0.158182
      dxz     :     0.021727
      dyz     :     0.051479
      dx2y2   :     0.027069
      dxy     :     0.019965
  9 C s       :     2.782977  s :     2.782977
      pz      :     1.056393  p :     3.103408
      px      :     0.943739
      py      :     1.103276
      dz2     :     0.029893  d :     0.132290
      dxz     :     0.010344
      dyz     :     0.041127
      dx2y2   :     0.026121
      dxy     :     0.024805
 10 C s       :     2.789965  s :     2.789965
      pz      :     1.077819  p :     3.121670
      px      :     0.962905
      py      :     1.080947
      dz2     :     0.034145  d :     0.132317
      dxz     :     0.017665
      dyz     :     0.046212
      dx2y2   :     0.019157
      dxy     :     0.015137
 11 C s       :     2.781552  s :     2.781552
      pz      :     1.092185  p :     3.119807
      px      :     0.952827
      py      :     1.074794
      dz2     :     0.033982  d :     0.131868
      dxz     :     0.018855
      dyz     :     0.045742
      dx2y2   :     0.019205
      dxy     :     0.014083
 12 C s       :     2.783286  s :     2.783286
      pz      :     0.861811  p :     2.875029
      px      :     0.960361
      py      :     1.052857
      dz2     :     0.043915  d :     0.311606
      dxz     :     0.056879
      dyz     :     0.059421
      dx2y2   :     0.062382
      dxy     :     0.089009
 13 O s       :     3.505430  s :     3.505430
      pz      :     1.437982  p :     4.697877
      px      :     1.481815
      py      :     1.778080
      dz2     :     0.003222  d :     0.022882
      dxz     :     0.009456
      dyz     :     0.001909
      dx2y2   :     0.005088
      dxy     :     0.003207
 14 C s       :     2.777028  s :     2.777028
      pz      :     0.985767  p :     3.179514
      px      :     1.102601
      py      :     1.091146
      dz2     :     0.012730  d :     0.157875
      dxz     :     0.018888
      dyz     :     0.016522
      dx2y2   :     0.049873
      dxy     :     0.059861
 15 C s       :     2.783875  s :     2.783875
      pz      :     0.936031  p :     3.119670
      px      :     1.094094
      py      :     1.089544
      dz2     :     0.009252  d :     0.132342
      dxz     :     0.020176
      dyz     :     0.009306
      dx2y2   :     0.047990
      dxy     :     0.045618
 16 C s       :     2.793336  s :     2.793336
      pz      :     0.956715  p :     3.135688
      px      :     1.066815
      py      :     1.112158
      dz2     :     0.008434  d :     0.131278
      dxz     :     0.006994
      dyz     :     0.020315
      dx2y2   :     0.051138
      dxy     :     0.044397
 17 C s       :     2.798249  s :     2.798249
      pz      :     0.928609  p :     3.113631
      px      :     1.095535
      py      :     1.089487
      dz2     :     0.008985  d :     0.131790
      dxz     :     0.015801
      dyz     :     0.012675
      dx2y2   :     0.043623
      dxy     :     0.050707
 18 C s       :     2.793872  s :     2.793872
      pz      :     0.956356  p :     3.134553
      px      :     1.102984
      py      :     1.075213
      dz2     :     0.009081  d :     0.131474
      dxz     :     0.018035
      dyz     :     0.009264
      dx2y2   :     0.047786
      dxy     :     0.047308
 19 C s       :     2.785203  s :     2.785203
      pz      :     0.930600  p :     3.106112
      px      :     1.075574
      py      :     1.099938
      dz2     :     0.008550  d :     0.131858
      dxz     :     0.007490
      dyz     :     0.022249
      dx2y2   :     0.051294
      dxy     :     0.042274
 20 H s       :     0.859484  s :     0.859484
      pz      :     0.039377  p :     0.068972
      px      :     0.016086
      py      :     0.013509
 21 H s       :     0.856400  s :     0.856400
      pz      :     0.013183  p :     0.068992
      px      :     0.032854
      py      :     0.022955
 22 H s       :     0.851836  s :     0.851836
      pz      :     0.014873  p :     0.069862
      px      :     0.015082
      py      :     0.039907
 23 H s       :     0.663698  s :     0.663698
      pz      :     0.050527  p :     0.183988
      px      :     0.036957
      py      :     0.096505
 24 H s       :     0.818766  s :     0.818766
      pz      :     0.020903  p :     0.072861
      px      :     0.015560
      py      :     0.036398
 25 H s       :     0.830931  s :     0.830931
      pz      :     0.041634  p :     0.071963
      px      :     0.018126
      py      :     0.012202
 26 H s       :     0.843402  s :     0.843402
      pz      :     0.020205  p :     0.070745
      px      :     0.015321
      py      :     0.035219
 27 H s       :     0.828023  s :     0.828023
      pz      :     0.018487  p :     0.071489
      px      :     0.014123
      py      :     0.038878
 28 H s       :     0.827959  s :     0.827959
      pz      :     0.014102  p :     0.072894
      px      :     0.017528
      py      :     0.041264
 29 H s       :     0.844780  s :     0.844780
      pz      :     0.015096  p :     0.070868
      px      :     0.043324
      py      :     0.012448
 30 H s       :     0.845259  s :     0.845259
      pz      :     0.013923  p :     0.070710
      px      :     0.023810
      py      :     0.032977
 31 H s       :     0.845306  s :     0.845306
      pz      :     0.014245  p :     0.070814
      px      :     0.016865
      py      :     0.039704
 32 H s       :     0.831669  s :     0.831669
      pz      :     0.015006  p :     0.072097
      px      :     0.044645
      py      :     0.012445


                      *****************************
                      * MAYER POPULATION ANALYSIS *
                      *****************************

  NA   - Mulliken gross atomic population
  ZA   - Total nuclear charge
  QA   - Mulliken gross atomic charge
  VA   - Mayer's total valence
  BVA  - Mayer's bonded valence
  FA   - Mayer's free valence

  ATOM       NA         ZA         QA         VA         BVA        FA
  0 H      0.8070     1.0000     0.1930     0.9508     0.9508     0.0000
  1 C      5.9618     6.0000     0.0382     3.0603     3.0603    -0.0000
  2 C      6.6798     6.0000    -0.6798     3.9304     3.9304     0.0000
  3 C      6.1102     6.0000    -0.1102     4.1840     4.1840     0.0000
  4 O      8.2009     8.0000    -0.2009     2.0655     2.0655    -0.0000
  5 O      8.3327     8.0000    -0.3327     1.9824     1.9824     0.0000
  6 C      4.7987     6.0000     1.2013     2.0647     2.0647    -0.0000
  7 C      8.1074     6.0000    -2.1074     6.4621     6.4621    -0.0000
  8 C      4.5122     6.0000     1.4878     1.7957     1.7957    -0.0000
  9 C      5.8370     6.0000     0.1630     2.9368     2.9368    -0.0000
 10 C      6.3648     6.0000    -0.3648     3.5076     3.5076    -0.0000
 11 C      6.1090     6.0000    -0.1090     3.6685     3.6685    -0.0000
 12 C      7.0717     6.0000    -1.0717     4.0916     4.0916     0.0000
 13 O      8.2907     8.0000    -0.2907     1.8845     1.8845    -0.0000
 14 C      4.6512     6.0000     1.3488     2.3543     2.3543    -0.0000
 15 C      6.9258     6.0000    -0.9258     5.0936     5.0936     0.0000
 16 C      6.3225     6.0000    -0.3225     3.8330     3.8330    -0.0000
 17 C      6.1707     6.0000    -0.1707     3.9814     3.9814    -0.0000
 18 C      6.2415     6.0000    -0.2415     3.7759     3.7759     0.0000
 19 C      5.8297     6.0000     0.1703     3.1879     3.1879     0.0000
 20 H      0.8362     1.0000     0.1638     0.9417     0.9417    -0.0000
 21 H      0.8404     1.0000     0.1596     0.9478     0.9478    -0.0000
 22 H      0.8164     1.0000     0.1836     0.9370     0.9370     0.0000
 23 H      0.6838     1.0000     0.3162     0.9547     0.9547    -0.0000
 24 H      0.8250     1.0000     0.1750     0.9634     0.9634    -0.0000
 25 H      0.8372     1.0000     0.1628     0.9628     0.9628     0.0000
 26 H      0.8341     1.0000     0.1659     0.9504     0.9504     0.0000
 27 H      0.8307     1.0000     0.1693     0.9633     0.9633     0.0000
 28 H      0.8221     1.0000     0.1779     0.9523     0.9523    -0.0000
 29 H      0.8374     1.0000     0.1626     0.9566     0.9566    -0.0000
 30 H      0.8344     1.0000     0.1656     0.9539     0.9539    -0.0000
 31 H      0.8362     1.0000     0.1638     0.9538     0.9538    -0.0000
 32 H      0.8409     1.0000     0.1591     0.9676     0.9676     0.0000

  Mayer bond orders larger than 0.100000
B(  0-H ,  1-C ) :   1.0772 B(  0-H ,  6-C ) :  -0.4383 B(  0-H ,  7-C ) :   0.3319 
B(  1-C ,  2-C ) :   0.9269 B(  1-C ,  3-C ) :   0.8441 B(  1-C ,  4-O ) :  -0.2491 
B(  1-C ,  7-C ) :   0.4478 B(  2-C ,  6-C ) :  -0.3968 B(  2-C ,  7-C ) :   0.2128 
B(  2-C , 11-C ) :   0.2248 B(  2-C , 20-H ) :   0.9763 B(  2-C , 21-H ) :   1.0021 
B(  2-C , 22-H ) :   0.9699 B(  3-C ,  4-O ) :   1.3462 B(  3-C ,  5-O ) :   2.0519 
B(  3-C ,  6-C ) :  -0.2434 B(  3-C , 11-C ) :   0.2001 B(  4-O ,  6-C ) :   0.6353 
B(  4-O ,  7-C ) :  -0.3507 B(  4-O , 11-C ) :  -0.1526 B(  4-O , 23-H ) :   0.8615 
B(  5-O ,  7-C ) :   0.1486 B(  5-O , 11-C ) :  -0.2343 B(  6-C ,  7-C ) :   0.8032 
B(  6-C ,  8-C ) :   0.3376 B(  6-C , 10-C ) :   0.2391 B(  6-C , 11-C ) :   1.4968 
B(  6-C , 12-C ) :  -0.1662 B(  6-C , 14-C ) :   0.4378 B(  6-C , 15-C ) :  -0.1244 
B(  6-C , 16-C ) :   0.3458 B(  6-C , 18-C ) :   0.1729 B(  6-C , 19-C ) :  -0.8607 
B(  6-C , 23-H ) :   0.1089 B(  7-C ,  8-C ) :   0.5331 B(  7-C ,  9-C ) :   0.3783 
B(  7-C , 11-C ) :   0.3731 B(  7-C , 12-C ) :   1.7896 B(  7-C , 14-C ) :  -0.3848 
B(  7-C , 15-C ) :   1.6535 B(  7-C , 17-C ) :   0.1669 B(  7-C , 18-C ) :  -0.2932 
B(  7-C , 19-C ) :  -0.2338 B(  7-C , 24-H ) :   0.8325 B(  8-C ,  9-C ) :   1.6530 
B(  8-C , 11-C ) :   0.1483 B(  8-C , 12-C ) :  -0.3806 B(  8-C , 14-C ) :   0.4061 
B(  8-C , 15-C ) :  -0.5428 B(  8-C , 16-C ) :   0.2175 B(  8-C , 17-C ) :  -0.1350 
B(  8-C , 18-C ) :   0.1669 B(  8-C , 19-C ) :  -0.5653 B(  9-C , 10-C ) :   1.1310 
B(  9-C , 11-C ) :  -0.4233 B(  9-C , 12-C ) :  -0.4242 B(  9-C , 14-C ) :  -0.7680 
B(  9-C , 15-C ) :  -0.4937 B(  9-C , 16-C ) :  -0.5569 B(  9-C , 17-C ) :   0.1019 
B(  9-C , 18-C ) :  -0.1217 B(  9-C , 19-C ) :   1.4446 B(  9-C , 25-H ) :   0.8934 
B( 10-C , 11-C ) :   1.1876 B( 10-C , 14-C ) :   0.1545 B( 10-C , 15-C ) :  -0.1917 
B( 10-C , 16-C ) :   0.1140 B( 10-C , 19-C ) :  -0.1213 B( 10-C , 26-H ) :   1.0090 
B( 11-C , 14-C ) :  -0.1459 B( 11-C , 27-H ) :   0.8523 B( 12-C , 13-O ) :   1.8408 
B( 12-C , 15-C ) :   1.3289 B( 12-C , 16-C ) :   0.1678 B( 12-C , 18-C ) :  -0.1003 
B( 12-C , 19-C ) :  -0.2795 B( 12-C , 32-H ) :   0.1310 B( 14-C , 15-C ) :   1.1203 
B( 14-C , 16-C ) :  -0.1330 B( 14-C , 19-C ) :   1.6499 B( 15-C , 16-C ) :   1.4072 
B( 15-C , 19-C ) :  -0.1228 B( 15-C , 28-H ) :   0.9542 B( 16-C , 17-C ) :   1.4145 
B( 16-C , 29-H ) :   0.9945 B( 17-C , 18-C ) :   1.4535 B( 17-C , 19-C ) :   0.1530 
B( 17-C , 30-H ) :   0.9474 B( 18-C , 19-C ) :   1.3794 B( 18-C , 31-H ) :   1.0084 
B( 19-C , 31-H ) :  -0.1102 B( 19-C , 32-H ) :   0.9135 

-------
TIMINGS
-------

Total SCF time: 0 days 0 hours 5 min 48 sec 

Total time                  ....     348.555 sec
Sum of individual times     ....     348.054 sec  ( 99.9%)

Fock matrix formation       ....     344.298 sec  ( 98.8%)
  Split-RI-J                ....      17.479 sec  (  5.1% of F)
  Chain of spheres X        ....     280.143 sec  ( 81.4% of F)
  XC integration            ....      21.351 sec  (  6.2% of F)
    Basis function eval.    ....       6.830 sec  ( 32.0% of XC)
    Density eval.           ....       8.998 sec  ( 42.1% of XC)
    XC-Functional eval.     ....       0.533 sec  (  2.5% of XC)
    XC-Potential eval.      ....       4.248 sec  ( 19.9% of XC)
Diagonalization             ....       0.025 sec  (  0.0%)
Density matrix formation    ....       0.034 sec  (  0.0%)
Population analysis         ....       0.034 sec  (  0.0%)
Initial guess               ....       0.026 sec  (  0.0%)
Orbital Transformation      ....       0.000 sec  (  0.0%)
Orbital Orthonormalization  ....       0.019 sec  (  0.0%)
DIIS solution               ....       0.010 sec  (  0.0%)
SOSCF solution              ....       0.311 sec  (  0.1%)
Grid generation             ....       3.316 sec  (  1.0%)

Maximum memory used throughout the entire SCF-calculation: 203.0 MB

-------------------------   --------------------
FINAL SINGLE POINT ENERGY      -843.586878958206
-------------------------   --------------------

                                *** OPTIMIZATION RUN DONE ***

                            ***************************************
                            *     ORCA property calculations      *
                            ***************************************

                                    ---------------------
                                    Active property flags
                                    ---------------------
   (+) Dipole Moment


------------------------------------------------------------------------------
                       ORCA ELECTRIC PROPERTIES CALCULATION
------------------------------------------------------------------------------

Dipole Moment Calculation                       ... on
Quadrupole Moment Calculation                   ... off
Polarizability Calculation                      ... off
GBWName                                         ... Dexketoprofen\Dexketoprofen_B3LYP_6-311+G\Dexketoprofen_B3LYP_6-311+G.orcainp.gbw
Electron density                                ... Dexketoprofen\Dexketoprofen_B3LYP_6-311+G\Dexketoprofen_B3LYP_6-311+G.orcainp.scfp
The origin for moment calculation is the CENTER OF MASS  = ( 4.319322, -3.019611  4.538624)

-------------
DIPOLE MOMENT
-------------
                                X             Y             Z
Electronic contribution:     -1.13558      -0.23683       5.05402
Nuclear contribution   :      0.54541      -1.64063      -5.46437
                        -----------------------------------------
Total Dipole Moment    :     -0.59017      -1.87746      -0.41035
                        -----------------------------------------
Magnitude (a.u.)       :      2.01036
Magnitude (Debye)      :      5.10992



--------------------
Rotational spectrum 
--------------------
 
Rotational constants in cm-1:     0.020966     0.007106     0.005915 
Rotational constants in MHz :   628.555579   213.028999   177.338879 

 Dipole components along the rotational axes: 
x,y,z [a.u.] :    -1.309551     1.419791    -0.557492 
x,y,z [Debye]:    -3.328613     3.608823    -1.417032 

 

Timings for individual modules:

Sum of individual times         ...    10766.372 sec (= 179.440 min)
GTO integral calculation        ...        6.048 sec (=   0.101 min)   0.1 %
SCF iterations                  ...     9364.705 sec (= 156.078 min)  87.0 %
SCF Gradient evaluation         ...     1394.241 sec (=  23.237 min)  12.9 %
Geometry relaxation             ...        1.378 sec (=   0.023 min)   0.0 %
                             ****ORCA TERMINATED NORMALLY****
TOTAL RUN TIME: 0 days 2 hours 59 minutes 28 seconds 135 msec
