
                                 *****************
                                 * O   R   C   A *
                                 *****************

                                            #,                                       
                                            ###                                      
                                            ####                                     
                                            #####                                    
                                            ######                                   
                                           ########,                                 
                                     ,,################,,,,,                         
                               ,,#################################,,                 
                          ,,##########################################,,             
                       ,#########################################, ''#####,          
                    ,#############################################,,   '####,        
                  ,##################################################,,,,####,       
                ,###########''''           ''''###############################       
              ,#####''   ,,,,##########,,,,          '''####'''          '####       
            ,##' ,,,,###########################,,,                        '##       
           ' ,,###''''                  '''############,,,                           
         ,,##''                                '''############,,,,        ,,,,,,###''
      ,#''                                            '''#######################'''  
     '                                                          ''''####''''         
             ,#######,   #######,   ,#######,      ##                                
            ,#'     '#,  ##    ##  ,#'     '#,    #''#        ######   ,####,        
            ##       ##  ##   ,#'  ##            #'  '#       #        #'  '#        
            ##       ##  #######   ##           ,######,      #####,   #    #        
            '#,     ,#'  ##    ##  '#,     ,#' ,#      #,         ##   #,  ,#        
             '#######'   ##     ##  '#######'  #'      '#     #####' # '####'        



                  #######################################################
                  #                        -***-                        #
                  #          Department of theory and spectroscopy      #
                  #    Directorship and core code : Frank Neese         #
                  #        Max Planck Institute fuer Kohlenforschung    #
                  #                Kaiser Wilhelm Platz 1               #
                  #                 D-45470 Muelheim/Ruhr               #
                  #                      Germany                        #
                  #                                                     #
                  #                  All rights reserved                #
                  #                        -***-                        #
                  #######################################################



                         Program Version 5.0.4 -  RELEASE  -

 With contributions from (in alphabetic order):
   Daniel Aravena         : Magnetic Suceptibility
   Michael Atanasov       : Ab Initio Ligand Field Theory (pilot matlab implementation)
   Alexander A. Auer      : GIAO ZORA, VPT2 properties, NMR spectrum
   Ute Becker             : Parallelization
   Giovanni Bistoni       : ED, misc. LED, open-shell LED, HFLD
   Martin Brehm           : Molecular dynamics
   Dmytro Bykov           : SCF Hessian
   Vijay G. Chilkuri      : MRCI spin determinant printing, contributions to CSF-ICE
   Dipayan Datta          : RHF DLPNO-CCSD density
   Achintya Kumar Dutta   : EOM-CC, STEOM-CC
   Dmitry Ganyushin       : Spin-Orbit,Spin-Spin,Magnetic field MRCI
   Miquel Garcia          : C-PCM and meta-GGA Hessian, CC/C-PCM, Gaussian charge scheme
   Yang Guo               : DLPNO-NEVPT2, F12-NEVPT2, CIM, IAO-localization
   Andreas Hansen         : Spin unrestricted coupled pair/coupled cluster methods
   Benjamin Helmich-Paris : MC-RPA, TRAH-SCF, COSX integrals
   Lee Huntington         : MR-EOM, pCC
   Robert Izsak           : Overlap fitted RIJCOSX, COSX-SCS-MP3, EOM
   Marcus Kettner         : VPT2
   Christian Kollmar      : KDIIS, OOCD, Brueckner-CCSD(T), CCSD density, CASPT2, CASPT2-K
   Simone Kossmann        : Meta GGA functionals, TD-DFT gradient, OOMP2, MP2 Hessian
   Martin Krupicka        : Initial AUTO-CI
   Lucas Lang             : DCDCAS
   Marvin Lechner         : AUTO-CI (C++ implementation), FIC-MRCC
   Dagmar Lenk            : GEPOL surface, SMD
   Dimitrios Liakos       : Extrapolation schemes; Compound Job, initial MDCI parallelization
   Dimitrios Manganas     : Further ROCIS development; embedding schemes
   Dimitrios Pantazis     : SARC Basis sets
   Anastasios Papadopoulos: AUTO-CI, single reference methods and gradients
   Taras Petrenko         : DFT Hessian,TD-DFT gradient, ASA, ECA, R-Raman, ABS, FL, XAS/XES, NRVS
   Peter Pinski           : DLPNO-MP2, DLPNO-MP2 Gradient
   Christoph Reimann      : Effective Core Potentials
   Marius Retegan         : Local ZFS, SOC
   Christoph Riplinger    : Optimizer, TS searches, QM/MM, DLPNO-CCSD(T), (RO)-DLPNO pert. Triples
   Tobias Risthaus        : Range-separated hybrids, TD-DFT gradient, RPA, STAB
   Michael Roemelt        : Original ROCIS implementation
   Masaaki Saitow         : Open-shell DLPNO-CCSD energy and density
   Barbara Sandhoefer     : DKH picture change effects
   Avijit Sen             : IP-ROCIS
   Kantharuban Sivalingam : CASSCF convergence, NEVPT2, FIC-MRCI
   Bernardo de Souza      : ESD, SOC TD-DFT
   Georgi Stoychev        : AutoAux, RI-MP2 NMR, DLPNO-MP2 response
   Willem Van den Heuvel  : Paramagnetic NMR
   Boris Wezisla          : Elementary symmetry handling
   Frank Wennmohs         : Technical directorship


 We gratefully acknowledge several colleagues who have allowed us to
 interface, adapt or use parts of their codes:
   Stefan Grimme, W. Hujo, H. Kruse, P. Pracht,  : VdW corrections, initial TS optimization,
                  C. Bannwarth, S. Ehlert          DFT functionals, gCP, sTDA/sTD-DF
   Ed Valeev, F. Pavosevic, A. Kumar             : LibInt (2-el integral package), F12 methods
   Garnet Chan, S. Sharma, J. Yang, R. Olivares  : DMRG
   Ulf Ekstrom                                   : XCFun DFT Library
   Mihaly Kallay                                 : mrcc  (arbitrary order and MRCC methods)
   Jiri Pittner, Ondrej Demel                    : Mk-CCSD
   Frank Weinhold                                : gennbo (NPA and NBO analysis)
   Christopher J. Cramer and Donald G. Truhlar   : smd solvation model
   Lars Goerigk                                  : TD-DFT with DH, B97 family of functionals
   V. Asgeirsson, H. Jonsson                     : NEB implementation
   FAccTs GmbH                                   : IRC, NEB, NEB-TS, DLPNO-Multilevel, CI-OPT
                                                   MM, QMMM, 2- and 3-layer-ONIOM, Crystal-QMMM,
                                                   LR-CPCM, SF, NACMEs, symmetry and pop. for TD-DFT,
                                                   nearIR, NL-DFT gradient (VV10), updates on ESD,
                                                   ML-optimized integration grids
   S Lehtola, MJT Oliveira, MAL Marques          : LibXC Library
   Liviu Ungur et al                             : ANISO software


 Your calculation uses the libint2 library for the computation of 2-el integrals
 For citations please refer to: http://libint.valeyev.net

 Your ORCA version has been built with support for libXC version: 5.1.0
 For citations please refer to: https://tddft.org/programs/libxc/

 This ORCA versions uses:
   CBLAS   interface :  Fast vector & matrix operations
   LAPACKE interface :  Fast linear algebra routines
   Shared memory     :  Shared parallel matrices


================================================================================

----- Orbital basis set information -----
Your calculation utilizes the basis: def2-TZVP
   F. Weigend and R. Ahlrichs, Phys. Chem. Chem. Phys. 7, 3297 (2005).

----- AuxJ basis set information -----
Your calculation utilizes the auxiliary basis: def2/J
   F. Weigend, Phys. Chem. Chem. Phys. 8, 1057 (2006).

================================================================================
                                        WARNINGS
                       Please study these warnings very carefully!
================================================================================


WARNING: Geometry Optimization
  ===> : Switching off AutoStart
         For restart on a previous wavefunction, please use MOREAD

INFO   : the flag for use of the SHARK integral package has been found!

================================================================================
                                       INPUT FILE
================================================================================
NAME = Dexketoprofen\Dexketoprofen_TPSS_def2-TZVP\Dexketoprofen_TPSS_def2-TZVP.orcainp
|  1> # ORCA input file
|  2> # 
|  3> !TPSS def2-TZVP Opt CPCM(WATER)
|  4> 
|  5> * xyz 0 1
|  6>    H        2.99915        -0.59482        -0.34059
|  7>    C        2.10378        -0.01297        -0.08462
|  8>    C        1.05032        -0.28195        -1.16588
|  9>    C        1.63311        -0.57603         1.25651
| 10>    O        2.13412         0.03527         2.35434
| 11>    O        0.91295        -1.55966         1.36234
| 12>    C        2.47423         1.46674        -0.07906
| 13>    C        3.78469         1.86990        -0.39931
| 14>    C        4.11807         3.23189        -0.46005
| 15>    C        3.13324         4.19567        -0.22177
| 16>    C        1.83803         3.80664         0.11446
| 17>    C        1.51181         2.45269         0.19252
| 18>    C        5.47566         3.70437        -0.84698
| 19>    O        5.57797         4.74591        -1.48773
| 20>    C        6.70779         2.95851        -0.48076
| 21>    C        6.79747         2.20439         0.69555
| 22>    C        7.97785         1.52353         0.99996
| 23>    C        9.07757         1.61359         0.14671
| 24>    C        9.00404         2.38924        -1.00942
| 25>    C        7.82309         3.06382        -1.32205
| 26>    H        0.84493        -1.35384        -1.25723
| 27>    H        1.38631         0.07941        -2.14407
| 28>    H        0.09783         0.20863        -0.93395
| 29>    H        2.69503         0.81074         2.16941
| 30>    H        4.53372         1.11835        -0.64245
| 31>    H        3.37083         5.25491        -0.31116
| 32>    H        1.07556         4.56211         0.29220
| 33>    H        0.48630         2.17742         0.43695
| 34>    H        5.96911         2.15137         1.39542
| 35>    H        8.04593         0.93196         1.90975
| 36>    H        9.99880         1.08965         0.39056
| 37>    H        9.86735         2.47447        -1.66491
| 38>    H        7.77542         3.67607        -2.22102
| 39> *
| 40> 
| 41>                          ****END OF INPUT****
================================================================================

                       *****************************
                       * Geometry Optimization Run *
                       *****************************

Geometry optimization settings:
Update method            Update   .... BFGS
Choice of coordinates    CoordSys .... Z-matrix Internals
Initial Hessian          InHess   .... Almoef's Model

Convergence Tolerances:
Energy Change            TolE     ....  5.0000e-06 Eh
Max. Gradient            TolMAXG  ....  3.0000e-04 Eh/bohr
RMS Gradient             TolRMSG  ....  1.0000e-04 Eh/bohr
Max. Displacement        TolMAXD  ....  4.0000e-03 bohr
RMS Displacement         TolRMSD  ....  2.0000e-03 bohr
Strict Convergence                ....  False
------------------------------------------------------------------------------
                        ORCA OPTIMIZATION COORDINATE SETUP
------------------------------------------------------------------------------

The optimization will be done in new redundant internal coordinates
Making redundant internal coordinates   ...  (new redundants) done
Evaluating the initial hessian          ...  (Almloef) done
Evaluating the coordinates              ...  done
Calculating the B-matrix                .... done
Calculating the G-matrix                .... done
Diagonalizing the G-matrix              .... done
Small eigenvalue found = 3.244e-03
Small eigenvalue found = 1.304e-02
Small eigenvalue found = 1.689e-02
Small eigenvalue found = 2.964e-02
The first mode is                       ....   75
The number of degrees of freedom        ....   93

    -----------------------------------------------------------------
                    Redundant Internal Coordinates


    -----------------------------------------------------------------
         Definition                    Initial Value    Approx d2E/dq
    -----------------------------------------------------------------
      1. B(C   1,H   0)                  1.0981         0.349581   
      2. B(C   2,C   1)                  1.5334         0.368966   
      3. B(C   3,C   1)                  1.5288         0.375240   
      4. B(O   4,C   3)                  1.3527         0.641663   
      5. B(O   5,C   3)                  1.2237         1.030981   
      6. B(C   6,C   1)                  1.5254         0.379959   
      7. B(C   7,C   6)                  1.4080         0.584864   
      8. B(C   8,C   7)                  1.4035         0.594538   
      9. B(C   9,C   8)                  1.3984         0.605797   
     10. B(C  10,C   9)                  1.3935         0.616716   
     11. B(C  11,C  10)                  1.3949         0.613693   
     12. B(C  11,C   6)                  1.4043         0.592785   
     13. B(C  12,C   8)                  1.4886         0.434900   
     14. B(O  13,C  12)                  1.2271         1.017967   
     15. B(C  14,C  12)                  1.4861         0.438911   
     16. B(C  15,C  14)                  1.4002         0.601909   
     17. B(C  16,C  15)                  1.3963         0.610599   
     18. B(C  17,C  16)                  1.3948         0.613824   
     19. B(C  18,C  17)                  1.3942         0.615326   
     20. B(C  19,C  18)                  1.3955         0.612284   
     21. B(C  19,C  14)                  1.4010         0.600089   
     22. B(H  20,C   2)                  1.0952         0.353277   
     23. B(H  21,C   2)                  1.0956         0.352775   
     24. B(H  22,C   2)                  1.0962         0.351966   
     25. B(H  23,O   4)                  0.9748         0.492499   
     26. B(H  24,C   7)                  1.0886         0.361993   
     27. B(H  25,C   9)                  1.0892         0.361116   
     28. B(H  26,C  10)                  1.0880         0.362790   
     29. B(H  27,C  11)                  1.0896         0.360653   
     30. B(H  28,C  15)                  1.0857         0.365793   
     31. B(H  29,C  16)                  1.0873         0.363636   
     32. B(H  30,C  17)                  1.0875         0.363432   
     33. B(H  31,C  18)                  1.0873         0.363681   
     34. B(H  32,C  19)                  1.0887         0.361823   
     35. A(C   2,C   1,C   3)          110.0275         0.362857   
     36. A(C   3,C   1,C   6)          115.3944         0.364683   
     37. A(H   0,C   1,C   2)          107.6301         0.322089   
     38. A(H   0,C   1,C   3)          105.0923         0.322981   
     39. A(H   0,C   1,C   6)          108.4720         0.323643   
     40. A(C   2,C   1,C   6)          109.8513         0.363633   
     41. A(C   1,C   2,H  21)          111.1639         0.322570   
     42. A(H  20,C   2,H  22)          107.0192         0.288931   
     43. A(C   1,C   2,H  20)          111.0595         0.322645   
     44. A(H  20,C   2,H  21)          107.8093         0.289035   
     45. A(H  21,C   2,H  22)          107.9243         0.288867   
     46. A(C   1,C   2,H  22)          111.6693         0.322448   
     47. A(O   4,C   3,O   5)          120.7326         0.472787   
     48. A(C   1,C   3,O   5)          123.5812         0.431722   
     49. A(C   1,C   3,O   4)          115.5613         0.396843   
     50. A(C   3,O   4,H  23)          114.7497         0.368852   
     51. A(C   7,C   6,C  11)          118.7387         0.426097   
     52. A(C   1,C   6,C  11)          121.0195         0.394744   
     53. A(C   1,C   6,C   7)          120.1968         0.393815   
     54. A(C   8,C   7,H  24)          119.7928         0.350726   
     55. A(C   6,C   7,C   8)          120.5834         0.426323   
     56. A(C   6,C   7,H  24)          119.5736         0.349756   
     57. A(C   7,C   8,C   9)          119.6139         0.429018   
     58. A(C   9,C   8,C  12)          117.8918         0.405787   
     59. A(C   7,C   8,C  12)          122.4034         0.404445   
     60. A(C   8,C   9,C  10)          120.2165         0.431848   
     61. A(C  10,C   9,H  25)          119.6047         0.352760   
     62. A(C   8,C   9,H  25)          120.1736         0.351696   
     63. A(C   9,C  10,H  26)          119.7973         0.353036   
     64. A(C  11,C  10,H  26)          120.0639         0.352743   
     65. A(C   9,C  10,C  11)          120.1220         0.432855   
     66. A(C  10,C  11,H  27)          118.5480         0.352390   
     67. A(C   6,C  11,H  27)          120.7331         0.350332   
     68. A(C   6,C  11,C  10)          120.6894         0.429788   
     69. A(O  13,C  12,C  14)          119.0471         0.443079   
     70. A(C   8,C  12,C  14)          122.1923         0.383504   
     71. A(C   8,C  12,O  13)          118.7605         0.442344   
     72. A(C  15,C  14,C  19)          119.6033         0.429238   
     73. A(C  12,C  14,C  19)          118.3151         0.405767   
     74. A(C  12,C  14,C  15)          122.0354         0.405984   
     75. A(C  14,C  15,C  16)          119.9965         0.430578   
     76. A(C  16,C  15,H  28)          118.7273         0.352933   
     77. A(C  14,C  15,H  28)          121.2643         0.352078   
     78. A(C  15,C  16,C  17)          120.1110         0.432097   
     79. A(C  17,C  16,H  29)          119.8415         0.352895   
     80. A(C  15,C  16,H  29)          120.0428         0.352580   
     81. A(C  16,C  17,C  18)          120.1075         0.432696   
     82. A(C  18,C  17,H  30)          119.9122         0.353007   
     83. A(C  16,C  17,H  30)          119.9745         0.352861   
     84. A(C  17,C  18,C  19)          119.9570         0.432500   
     85. A(C  19,C  18,H  31)          119.9317         0.352752   
     86. A(C  17,C  18,H  31)          120.1102         0.353048   
     87. A(C  14,C  19,C  18)          120.1870         0.430557   
     88. A(C  18,C  19,H  32)          119.5962         0.352446   
     89. A(C  14,C  19,H  32)          120.2162         0.351250   
     90. D(H  20,C   2,C   1,C   3)    -57.7320         0.010886   
     91. D(H  22,C   2,C   1,H   0)    175.6340         0.010886   
     92. D(H  21,C   2,C   1,C   3)   -177.7663         0.010886   
     93. D(H  21,C   2,C   1,H   0)    -63.7728         0.010886   
     94. D(H  21,C   2,C   1,C   6)     54.1444         0.010886   
     95. D(H  20,C   2,C   1,C   6)    174.1787         0.010886   
     96. D(H  22,C   2,C   1,C   6)    -66.4488         0.010886   
     97. D(H  20,C   2,C   1,H   0)     56.2615         0.010886   
     98. D(H  22,C   2,C   1,C   3)     61.6405         0.010886   
     99. D(O   5,C   3,C   1,C   2)     30.5923         0.010524   
    100. D(O   5,C   3,C   1,H   0)    -85.0138         0.010524   
    101. D(O   4,C   3,C   1,C   6)    -28.4846         0.010524   
    102. D(O   4,C   3,C   1,C   2)   -153.4538         0.010524   
    103. D(O   5,C   3,C   1,C   6)    155.5615         0.010524   
    104. D(O   4,C   3,C   1,H   0)     90.9401         0.010524   
    105. D(H  23,O   4,C   3,O   5)   -179.8863         0.030366   
    106. D(H  23,O   4,C   3,C   1)      4.0351         0.030366   
    107. D(C  11,C   6,C   1,C   2)     61.3638         0.010773   
    108. D(C  11,C   6,C   1,H   0)    178.7574         0.010773   
    109. D(C   7,C   6,C   1,C   3)    118.7744         0.010773   
    110. D(C  11,C   6,C   1,C   3)    -63.6967         0.010773   
    111. D(C   7,C   6,C   1,C   2)   -116.1651         0.010773   
    112. D(C   7,C   6,C   1,H   0)      1.2285         0.010773   
    113. D(H  24,C   7,C   6,C  11)   -178.1099         0.023520   
    114. D(H  24,C   7,C   6,C   1)     -0.5250         0.023520   
    115. D(C   8,C   7,C   6,C  11)     -0.6898         0.023520   
    116. D(C   8,C   7,C   6,C   1)    176.8950         0.023520   
    117. D(C  12,C   8,C   7,H  24)     -0.1053         0.024344   
    118. D(C  12,C   8,C   7,C   6)   -177.5197         0.024344   
    119. D(C   9,C   8,C   7,H  24)    176.3516         0.024344   
    120. D(C   9,C   8,C   7,C   6)     -1.0628         0.024344   
    121. D(H  25,C   9,C   8,C  12)     -0.5880         0.025326   
    122. D(H  25,C   9,C   8,C   7)   -177.2036         0.025326   
    123. D(C  10,C   9,C   8,C  12)    178.5817         0.025326   
    124. D(C  10,C   9,C   8,C   7)      1.9662         0.025326   
    125. D(H  26,C  10,C   9,H  25)     -0.4368         0.026301   
    126. D(H  26,C  10,C   9,C   8)   -179.6113         0.026301   
    127. D(C  11,C  10,C   9,H  25)    178.0724         0.026301   
    128. D(C  11,C  10,C   9,C   8)     -1.1020         0.026301   
    129. D(H  27,C  11,C  10,C   9)   -178.7280         0.026029   
    130. D(C   6,C  11,C  10,H  26)    177.8160         0.026029   
    131. D(C   6,C  11,C  10,C   9)     -0.6893         0.026029   
    132. D(H  27,C  11,C   6,C   7)    179.5657         0.024194   
    133. D(H  27,C  11,C   6,C   1)      2.0015         0.024194   
    134. D(C  10,C  11,C   6,C   7)      1.5700         0.024194   
    135. D(H  27,C  11,C  10,H  26)     -0.2227         0.026029   
    136. D(C  10,C  11,C   6,C   1)   -175.9942         0.024194   
    137. D(C  14,C  12,C   8,C   9)    148.6217         0.012914   
    138. D(C  14,C  12,C   8,C   7)    -34.8634         0.012914   
    139. D(O  13,C  12,C   8,C   9)    -31.2536         0.012914   
    140. D(O  13,C  12,C   8,C   7)    145.2613         0.012914   
    141. D(C  19,C  14,C  12,O  13)    -28.8621         0.013146   
    142. D(C  19,C  14,C  12,C   8)    151.2630         0.013146   
    143. D(C  15,C  14,C  12,O  13)    148.6551         0.013146   
    144. D(C  15,C  14,C  12,C   8)    -31.2199         0.013146   
    145. D(H  28,C  15,C  14,C  19)    176.4226         0.024984   
    146. D(H  28,C  15,C  14,C  12)     -1.0634         0.024984   
    147. D(C  16,C  15,C  14,C  19)     -2.3081         0.024984   
    148. D(C  16,C  15,C  14,C  12)   -179.7941         0.024984   
    149. D(H  29,C  16,C  15,H  28)      1.6704         0.025752   
    150. D(H  29,C  16,C  15,C  14)   -179.5669         0.025752   
    151. D(C  17,C  16,C  15,H  28)   -177.5431         0.025752   
    152. D(C  17,C  16,C  15,C  14)      1.2196         0.025752   
    153. D(H  30,C  17,C  16,H  29)      0.2309         0.026041   
    154. D(H  30,C  17,C  16,C  15)    179.4460         0.026041   
    155. D(C  18,C  17,C  16,H  29)   -178.8879         0.026041   
    156. D(C  18,C  17,C  16,C  15)      0.3272         0.026041   
    157. D(H  31,C  18,C  17,H  30)     -0.2676         0.026176   
    158. D(H  31,C  18,C  17,C  16)    178.8518         0.026176   
    159. D(C  19,C  18,C  17,H  30)   -179.8903         0.026176   
    160. D(C  19,C  18,C  17,C  16)     -0.7709         0.026176   
    161. D(H  32,C  19,C  18,C  17)    179.3766         0.025903   
    162. D(C  14,C  19,C  18,H  31)   -179.9557         0.025903   
    163. D(C  14,C  19,C  18,C  17)     -0.3324         0.025903   
    164. D(H  32,C  19,C  14,C  15)   -177.8391         0.024825   
    165. D(H  32,C  19,C  14,C  12)     -0.2598         0.024825   
    166. D(C  18,C  19,C  14,C  15)      1.8681         0.024825   
    167. D(H  32,C  19,C  18,H  31)     -0.2467         0.025903   
    168. D(C  18,C  19,C  14,C  12)    179.4473         0.024825   
    -----------------------------------------------------------------

Number of atoms                         .... 33
Number of degrees of freedom            .... 168

         *************************************************************
         *                GEOMETRY OPTIMIZATION CYCLE   1            *
         *************************************************************
---------------------------------
CARTESIAN COORDINATES (ANGSTROEM)
---------------------------------
  H      2.999150   -0.594820   -0.340590
  C      2.103780   -0.012970   -0.084620
  C      1.050320   -0.281950   -1.165880
  C      1.633110   -0.576030    1.256510
  O      2.134120    0.035270    2.354340
  O      0.912950   -1.559660    1.362340
  C      2.474230    1.466740   -0.079060
  C      3.784690    1.869900   -0.399310
  C      4.118070    3.231890   -0.460050
  C      3.133240    4.195670   -0.221770
  C      1.838030    3.806640    0.114460
  C      1.511810    2.452690    0.192520
  C      5.475660    3.704370   -0.846980
  O      5.577970    4.745910   -1.487730
  C      6.707790    2.958510   -0.480760
  C      6.797470    2.204390    0.695550
  C      7.977850    1.523530    0.999960
  C      9.077570    1.613590    0.146710
  C      9.004040    2.389240   -1.009420
  C      7.823090    3.063820   -1.322050
  H      0.844930   -1.353840   -1.257230
  H      1.386310    0.079410   -2.144070
  H      0.097830    0.208630   -0.933950
  H      2.695030    0.810740    2.169410
  H      4.533720    1.118350   -0.642450
  H      3.370830    5.254910   -0.311160
  H      1.075560    4.562110    0.292200
  H      0.486300    2.177420    0.436950
  H      5.969110    2.151370    1.395420
  H      8.045930    0.931960    1.909750
  H      9.998800    1.089650    0.390560
  H      9.867350    2.474470   -1.664910
  H      7.775420    3.676070   -2.221020

----------------------------
CARTESIAN COORDINATES (A.U.)
----------------------------
  NO LB      ZA    FRAG     MASS         X           Y           Z
   0 H     1.0000    0     1.008    5.667572   -1.124047   -0.643622
   1 C     6.0000    0    12.011    3.975568   -0.024510   -0.159909
   2 C     6.0000    0    12.011    1.984817   -0.532808   -2.203194
   3 C     6.0000    0    12.011    3.086131   -1.088539    2.374460
   4 O     8.0000    0    15.999    4.032902    0.066651    4.449058
   5 O     8.0000    0    15.999    1.725225   -2.947330    2.574450
   6 C     6.0000    0    12.011    4.675617    2.771737   -0.149402
   7 C     6.0000    0    12.011    7.152028    3.533599   -0.754587
   8 C     6.0000    0    12.011    7.782025    6.107387   -0.869369
   9 C     6.0000    0    12.011    5.920966    7.928667   -0.419085
  10 C     6.0000    0    12.011    3.473373    7.193507    0.216298
  11 C     6.0000    0    12.011    2.856907    4.634912    0.363810
  12 C     6.0000    0    12.011   10.347498    7.000245   -1.600560
  13 O     8.0000    0    15.999   10.540836    8.968470   -2.811402
  14 C     6.0000    0    12.011   12.675886    5.590774   -0.908505
  15 C     6.0000    0    12.011   12.845357    4.165693    1.314399
  16 C     6.0000    0    12.011   15.075952    2.879054    1.889651
  17 C     6.0000    0    12.011   17.154121    3.049243    0.277242
  18 C     6.0000    0    12.011   17.015170    4.515009   -1.907527
  19 C     6.0000    0    12.011   14.783498    5.789781   -2.498312
  20 H     1.0000    0     1.008    1.596686   -2.558387   -2.375820
  21 H     1.0000    0     1.008    2.619746    0.150063   -4.051705
  22 H     1.0000    0     1.008    0.184872    0.394254   -1.764910
  23 H     1.0000    0     1.008    5.092869    1.532077    4.099591
  24 H     1.0000    0     1.008    8.567489    2.113375   -1.214055
  25 H     1.0000    0     1.008    6.369946    9.930341   -0.588007
  26 H     1.0000    0     1.008    2.032514    8.621138    0.552178
  27 H     1.0000    0     1.008    0.918974    4.114727    0.825716
  28 H     1.0000    0     1.008   11.279983    4.065500    2.636962
  29 H     1.0000    0     1.008   15.204604    1.761149    3.608904
  30 H     1.0000    0     1.008   18.894994    2.059140    0.738051
  31 H     1.0000    0     1.008   18.646589    4.676071   -3.146224
  32 H     1.0000    0     1.008   14.693414    6.946766   -4.197120

--------------------------------
INTERNAL COORDINATES (ANGSTROEM)
--------------------------------
 H      0   0   0     0.000000000000     0.00000000     0.00000000
 C      1   0   0     1.098069897730     0.00000000     0.00000000
 C      2   1   0     1.533379078897   107.63009018     0.00000000
 C      2   1   3     1.528789223340   105.09232625   117.25101742
 O      4   2   1     1.352748838107   115.56133341    90.94007603
 O      4   2   1     1.223665963979   123.58115690   274.98620200
 C      2   1   3     1.525387098477   108.47198109   241.19487700
 C      7   2   1     1.407978501150   120.19682396     1.22846343
 C      8   7   2     1.403512854270   120.58343444   176.89502758
 C      9   8   7     1.398406012466   119.61385854   358.93716160
 C     10   9   8     1.393543647648   120.21647379     1.96617909
 C     11  10   9     1.394881161426   120.12201800   358.89796762
 C      9   8   7     1.488624460164   122.40336769   182.48030553
 O     13   9   8     1.227124064714   118.76045151   145.26129401
 C     13   9   8     1.486125353024   122.19231939   325.13662095
 C     15  13   9     1.400158809886   122.03544706   328.78006993
 C     16  15  13     1.396256685606   119.99650082   180.20588418
 C     17  16  15     1.394822728701   120.11101569     1.21964693
 C     18  17  16     1.394157867783   120.10753443     0.32716484
 C     19  18  17     1.395506573184   119.95702366   359.22912164
 H      3   2   1     1.095206851102   111.05953661    56.26152343
 H      3   2   1     1.095593905514   111.16386188   296.22719371
 H      3   2   1     1.096219622795   111.66927779   175.63399156
 H      5   4   2     0.974768102627   114.74966625     4.03511480
 H      8   7   2     1.088572644797   119.57361932   359.47495253
 H     10   9   8     1.089233197162   120.17361302   182.79644827
 H     11  10   9     1.087973772386   119.79730959   180.38872071
 H     12  11  10     1.089582653083   118.54804388   181.27202321
 H     16  15  13     1.085729905133   121.26428726   358.93656481
 H     17  16  15     1.087339779186   120.04284918   180.43314560
 H     18  17  16     1.087492831701   119.97445069   179.44599612
 H     19  18  17     1.087306511109   120.11016087   178.85176228
 H     20  19  18     1.088700855286   119.59618066   179.37657301

---------------------------
INTERNAL COORDINATES (A.U.)
---------------------------
 H      0   0   0     0.000000000000     0.00000000     0.00000000
 C      1   0   0     2.075051382612     0.00000000     0.00000000
 C      2   1   0     2.897666518600   107.63009018     0.00000000
 C      2   1   3     2.888992948602   105.09232625   117.25101742
 O      4   2   1     2.556324832003   115.56133341    90.94007603
 O      4   2   1     2.312393551321   123.58115690   274.98620200
 C      2   1   3     2.882563864338   108.47198109   241.19487700
 C      7   2   1     2.660693769622   120.19682396     1.22846343
 C      8   7   2     2.652254920008   120.58343444   176.89502758
 C      9   8   7     2.642604387589   119.61385854   358.93716160
 C     10   9   8     2.633415849720   120.21647379     1.96617909
 C     11  10   9     2.635943384460   120.12201800   358.89796762
 C      9   8   7     2.813092545967   122.40336769   182.48030553
 O     13   9   8     2.318928414654   118.76045151   145.26129401
 C     13   9   8     2.808369917892   122.19231939   325.13662095
 C     15  13   9     2.645916694681   122.03544706   328.78006993
 C     16  15  13     2.638542748452   119.99650082   180.20588418
 C     17  16  15     2.635832962613   120.11101569     1.21964693
 C     18  17  16     2.634576557561   120.10753443     0.32716484
 C     19  18  17     2.637125241405   119.95702366   359.22912164
 H      3   2   1     2.069641008576   111.05953661    56.26152343
 H      3   2   1     2.070372435415   111.16386188   296.22719371
 H      3   2   1     2.071554869712   111.66927779   175.63399156
 H      5   4   2     1.842044758048   114.74966625     4.03511480
 H      8   7   2     2.057104175544   119.57361932   359.47495253
 H     10   9   8     2.058352438612   120.17361302   182.79644827
 H     11  10   9     2.055972470699   119.79730959   180.38872071
 H     12  11  10     2.059012814599   118.54804388   181.27202321
 H     16  15  13     2.051732176110   121.26428726   358.93656481
 H     17  16  15     2.054774397180   120.04284918   180.43314560
 H     18  17  16     2.055063624516   119.97445069   179.44599612
 H     19  18  17     2.054711529625   120.11016087   178.85176228
 H     20  19  18     2.057346458256   119.59618066   179.37657301

---------------------
BASIS SET INFORMATION
---------------------
There are 3 groups of distinct atoms

 Group   1 Type H   : 5s1p contracted to 3s1p pattern {311/1}
 Group   2 Type C   : 11s6p2d1f contracted to 5s3p2d1f pattern {62111/411/11/1}
 Group   3 Type O   : 11s6p2d1f contracted to 5s3p2d1f pattern {62111/411/11/1}

Atom   0H    basis set group =>   1
Atom   1C    basis set group =>   2
Atom   2C    basis set group =>   2
Atom   3C    basis set group =>   2
Atom   4O    basis set group =>   3
Atom   5O    basis set group =>   3
Atom   6C    basis set group =>   2
Atom   7C    basis set group =>   2
Atom   8C    basis set group =>   2
Atom   9C    basis set group =>   2
Atom  10C    basis set group =>   2
Atom  11C    basis set group =>   2
Atom  12C    basis set group =>   2
Atom  13O    basis set group =>   3
Atom  14C    basis set group =>   2
Atom  15C    basis set group =>   2
Atom  16C    basis set group =>   2
Atom  17C    basis set group =>   2
Atom  18C    basis set group =>   2
Atom  19C    basis set group =>   2
Atom  20H    basis set group =>   1
Atom  21H    basis set group =>   1
Atom  22H    basis set group =>   1
Atom  23H    basis set group =>   1
Atom  24H    basis set group =>   1
Atom  25H    basis set group =>   1
Atom  26H    basis set group =>   1
Atom  27H    basis set group =>   1
Atom  28H    basis set group =>   1
Atom  29H    basis set group =>   1
Atom  30H    basis set group =>   1
Atom  31H    basis set group =>   1
Atom  32H    basis set group =>   1
---------------------------------
AUXILIARY/J BASIS SET INFORMATION
---------------------------------
There are 3 groups of distinct atoms

 Group   1 Type H   : 5s2p1d contracted to 3s1p1d pattern {311/2/1}
 Group   2 Type C   : 12s5p4d2f1g contracted to 6s4p3d1f1g pattern {711111/2111/211/2/1}
 Group   3 Type O   : 12s5p4d2f1g contracted to 6s4p3d1f1g pattern {711111/2111/211/2/1}

Atom   0H    basis set group =>   1
Atom   1C    basis set group =>   2
Atom   2C    basis set group =>   2
Atom   3C    basis set group =>   2
Atom   4O    basis set group =>   3
Atom   5O    basis set group =>   3
Atom   6C    basis set group =>   2
Atom   7C    basis set group =>   2
Atom   8C    basis set group =>   2
Atom   9C    basis set group =>   2
Atom  10C    basis set group =>   2
Atom  11C    basis set group =>   2
Atom  12C    basis set group =>   2
Atom  13O    basis set group =>   3
Atom  14C    basis set group =>   2
Atom  15C    basis set group =>   2
Atom  16C    basis set group =>   2
Atom  17C    basis set group =>   2
Atom  18C    basis set group =>   2
Atom  19C    basis set group =>   2
Atom  20H    basis set group =>   1
Atom  21H    basis set group =>   1
Atom  22H    basis set group =>   1
Atom  23H    basis set group =>   1
Atom  24H    basis set group =>   1
Atom  25H    basis set group =>   1
Atom  26H    basis set group =>   1
Atom  27H    basis set group =>   1
Atom  28H    basis set group =>   1
Atom  29H    basis set group =>   1
Atom  30H    basis set group =>   1
Atom  31H    basis set group =>   1
Atom  32H    basis set group =>   1
------------------------------------------------------------------------------
                           ORCA GTO INTEGRAL CALCULATION
                           -- RI-GTO INTEGRALS CHOSEN --
------------------------------------------------------------------------------
------------------------------------------------------------------------------
                   ___                                                        
                  /   \      - P O W E R E D   B Y -                         
                 /     \                                                     
                 |  |  |   _    _      __       _____    __    __             
                 |  |  |  | |  | |    /  \     |  _  \  |  |  /  |          
                  \  \/   | |  | |   /    \    | | | |  |  | /  /          
                 / \  \   | |__| |  /  /\  \   | |_| |  |  |/  /          
                |  |  |   |  __  | /  /__\  \  |    /   |      \           
                |  |  |   | |  | | |   __   |  |    \   |  |\   \          
                \     /   | |  | | |  |  |  |  | |\  \  |  | \   \       
                 \___/    |_|  |_| |__|  |__|  |_| \__\ |__|  \__/        
                                                                              
                      - O R C A' S   B I G   F R I E N D -                    
                                      &                                       
                       - I N T E G R A L  F E E D E R -                       
                                                                              
 v1 FN, 2020, v2 2021                                                         
------------------------------------------------------------------------------


Reading SHARK input file Dexketoprofen\Dexketoprofen_TPSS_def2-TZVP\Dexketoprofen_TPSS_def2-TZVP.orcainp.SHARKINP.tmp ... ok
----------------------
SHARK INTEGRAL PACKAGE
----------------------

Number of atoms                             ...     33
Number of basis functions                   ...    673
Number of shells                            ...    265
Maximum angular momentum                    ...      3
Integral batch strategy                     ... SHARK/LIBINT Hybrid
RI-J (if used) integral strategy            ... SPLIT-RIJ (Revised 2003 algorithm where possible)
Printlevel                                  ...      1
Contraction scheme used                     ... SEGMENTED contraction
Coulomb Range Separation                    ... NOT USED
Exchange Range Separation                   ... NOT USED
Finite Nucleus Model                        ... NOT USED
Auxiliary Coulomb fitting basis             ... AVAILABLE
   # of basis functions in Aux-J            ...   1085
   # of shells in Aux-J                     ...    355
   Maximum angular momentum in Aux-J        ...      4
Auxiliary J/K fitting basis                 ... NOT available
Auxiliary Correlation fitting basis         ... NOT available
Auxiliary 'external' fitting basis          ... NOT available
Integral threshold                          ...     2.500000e-11
Primitive cut-off                           ...     2.500000e-12
Primitive pair pre-selection threshold      ...     2.500000e-12

Calculating pre-screening integrals         ... done (  0.1 sec) Dimension = 265
Organizing shell pair data                  ... done (  0.1 sec)
Shell pair information
Total number of shell pairs                 ...     35245
Shell pairs after pre-screening             ...     25606
Total number of primitive shell pairs       ...    108340
Primitive shell pairs kept                  ...     53281
          la=0 lb=0:   6632 shell pairs
          la=1 lb=0:   7369 shell pairs
          la=1 lb=1:   2078 shell pairs
          la=2 lb=0:   3655 shell pairs
          la=2 lb=1:   2047 shell pairs
          la=2 lb=2:    522 shell pairs
          la=3 lb=0:   1726 shell pairs
          la=3 lb=1:    985 shell pairs
          la=3 lb=2:    473 shell pairs
          la=3 lb=3:    119 shell pairs

Calculating one electron integrals          ... done (  0.1 sec)
Calculating RI/J V-Matrix + Cholesky decomp.... done (  0.0 sec)
Calculating Nuclear repulsion               ... done (  0.0 sec) ENN=   1310.620451773501 Eh

SHARK setup successfully completed in   0.6 seconds

Maximum memory used throughout the entire GTOINT-calculation: 332.5 MB
-------------------------------------------------------------------------------
                                 ORCA SCF
-------------------------------------------------------------------------------

------------
SCF SETTINGS
------------
Hamiltonian:
 Density Functional     Method          .... DFT(GTOs)
 Exchange Functional    Exchange        .... TPSS
 Correlation Functional Correlation     .... TPSS
 LDA part of GGA corr.  LDAOpt          .... PW91-LDA
 Gradients option       PostSCFGGA      .... off
   Density functional embedding theory  .... OFF
   NL short-range parameter             ....  5.000000
 RI-approximation to the Coulomb term is turned on
   Number of AuxJ basis functions       .... 1085


General Settings:
 Integral files         IntName         .... Dexketoprofen\Dexketoprofen_TPSS_def2-TZVP\Dexketoprofen_TPSS_def2-TZVP.orcainp
 Hartree-Fock type      HFTyp           .... RHF
 Total Charge           Charge          ....    0
 Multiplicity           Mult            ....    1
 Number of Electrons    NEL             ....  134
 Basis Dimension        Dim             ....  673
 Nuclear Repulsion      ENuc            ....   1310.6204517735 Eh

Convergence Acceleration:
 DIIS                   CNVDIIS         .... on
   Start iteration      DIISMaxIt       ....    12
   Startup error        DIISStart       ....  0.200000
   # of expansion vecs  DIISMaxEq       ....     5
   Bias factor          DIISBfac        ....   1.050
   Max. coefficient     DIISMaxC        ....  10.000
 Trust-Rad. Augm. Hess. CNVTRAH         .... auto
   Auto Start mean grad. ratio tolernc. ....  1.125000
   Auto Start start iteration           ....    20
   Auto Start num. interpolation iter.  ....    10
   Max. Number of Micro iterations      ....    16
   Max. Number of Macro iterations      .... Maxiter - #DIIS iter
   Number of Davidson start vectors     ....     2
   Converg. threshold I  (grad. norm)   ....   1.000e-05
   Converg. threshold II (energy diff.) ....   1.000e-08
   Grad. Scal. Fac. for Micro threshold ....   0.100
   Minimum threshold for Micro iter.    ....   0.010
   NR start threshold (gradient norm)   ....   0.001
   Initial trust radius                 ....   0.400
   Minimum AH scaling param. (alpha)    ....   1.000
   Maximum AH scaling param. (alpha)    .... 1000.000
   Orbital update algorithm             .... Taylor
   White noise on init. David. guess    .... on
   Maximum white noise                  ....   0.010
   Quad. conv. algorithm                .... NR
 SOSCF                  CNVSOSCF        .... on
   Start iteration      SOSCFMaxIt      ....   150
   Startup grad/error   SOSCFStart      ....  0.003300
 Level Shifting         CNVShift        .... on
   Level shift para.    LevelShift      ....    0.2500
   Turn off err/grad.   ShiftErr        ....    0.0010
 Zerner damping         CNVZerner       .... off
 Static damping         CNVDamp         .... on
   Fraction old density DampFac         ....    0.7000
   Max. Damping (<1)    DampMax         ....    0.9800
   Min. Damping (>=0)   DampMin         ....    0.0000
   Turn off err/grad.   DampErr         ....    0.1000
 Fernandez-Rico         CNVRico         .... off

SCF Procedure:
 Maximum # iterations   MaxIter         ....   125
 SCF integral mode      SCFMode         .... Direct
   Integral package                     .... SHARK and LIBINT hybrid scheme
 Reset frequency        DirectResetFreq ....    20
 Integral Threshold     Thresh          ....  2.500e-11 Eh
 Primitive CutOff       TCut            ....  2.500e-12 Eh

Convergence Tolerance:
 Convergence Check Mode ConvCheckMode   .... Total+1el-Energy
 Convergence forced     ConvForced      .... 0
 Energy Change          TolE            ....  1.000e-08 Eh
 1-El. energy change                    ....  1.000e-05 Eh
 Orbital Gradient       TolG            ....  1.000e-05
 Orbital Rotation angle TolX            ....  1.000e-05
 DIIS Error             TolErr          ....  5.000e-07


Diagonalization of the overlap matrix:
Smallest eigenvalue                        ... 6.781e-06
Time for diagonalization                   ...    0.027 sec
Threshold for overlap eigenvalues          ... 1.000e-08
Number of eigenvalues below threshold      ... 0
Time for construction of square roots      ...    0.020 sec
Total time needed                          ...    0.048 sec

Time for model grid setup =    0.383 sec

------------------------------
INITIAL GUESS: MODEL POTENTIAL
------------------------------
Loading Hartree-Fock densities                     ... done
Calculating cut-offs                               ... done
Initializing the effective Hamiltonian             ... done
Setting up the integral package (SHARK)            ... done
Starting the Coulomb interaction                   ... done (   0.8 sec)
Reading the grid                                   ... done
Mapping shells                                     ... done
Starting the XC term evaluation                    ... done (   0.8 sec)
  promolecular density results
     # of electrons  =    133.992991581
     EX              =   -110.376969878
     EC              =     -4.477507299
     EX+EC           =   -114.854477176
Transforming the Hamiltonian                       ... done (   0.0 sec)
Diagonalizing the Hamiltonian                      ... done (   0.0 sec)
Back transforming the eigenvectors                 ... done (   0.0 sec)
Now organizing SCF variables                       ... done
                      ------------------
                      INITIAL GUESS DONE (   2.0 sec)
                      ------------------
-------------------
DFT GRID GENERATION
-------------------

General Integration Accuracy     IntAcc      ... 4.388
Radial Grid Type                 RadialGrid  ... OptM3 with GC (2021)
Angular Grid (max. ang.)         AngularGrid ... 4 (Lebedev-302)
Angular grid pruning method      GridPruning ... 4 (adaptive)
Weight generation scheme         WeightScheme... Becke
Basis function cutoff            BFCut       ... 1.0000e-11
Integration weight cutoff        WCut        ... 1.0000e-14
Angular grids for H and He will be reduced by one unit
Partially contracted basis set               ... off
Rotationally invariant grid construction     ... off

Total number of grid points                  ...   158450
Total number of batches                      ...     2494
Average number of points per batch           ...       63
Average number of grid points per atom       ...     4802
Time for grid setup =    1.323 sec


--------------------
CPCM SOLVATION MODEL
--------------------
CPCM parameters:
  Epsilon                                         ...      80.4000
  Refrac                                          ...       1.3300
  Rsolv                                           ...       1.3000
  Surface type                                    ... GAUSSIAN VDW
  Epsilon function type                           ...         CPCM
Radii:
 Radius for H  used is    2.4944 Bohr (=   1.3200 Ang.)
 Radius for C  used is    3.8550 Bohr (=   2.0400 Ang.)
 Radius for O  used is    3.4469 Bohr (=   1.8240 Ang.)
Calculating surface                               ...        done! (  0.0s)
GEPOL surface points                              ...         1775
GEPOL Volume                                      ...    2077.4615
GEPOL Surface-area                                ...    1077.2415
Calculating surface distance matrix               ...        done! (  0.0s)
Performing Cholesky decomposition & store         ...        done! (  0.0s)
Overall time for CPCM initialization              ...                 0.1s
--------------
SCF ITERATIONS
--------------
ITER       Energy         Delta-E        Max-DP      RMS-DP      [F,P]     Damp
               ***  Starting incremental Fock matrix formation  ***
  0   -843.8583291054   0.000000000000 0.27202392  0.00121385  0.2590040 0.7000
  1   -844.0721581421  -0.213829036658 0.21115058  0.00097345  0.0811358 0.7000
                               ***Turning on DIIS***
  2   -844.1439533885  -0.071795246464 0.15752957  0.00138443  0.0263876 0.0000
  3   -844.2688851351  -0.124931746610 0.20597793  0.00082735  0.0500875 0.0000
  4   -844.2932990525  -0.024413917315 0.03432895  0.00024385  0.0266849 0.0000
  5   -844.2963646396  -0.003065587101 0.01785378  0.00011816  0.0065398 0.0000
                      *** Initiating the SOSCF procedure ***
                           *** Shutting down DIIS ***
                      *** Re-Reading the Fockian *** 
                      *** Removing any level shift *** 
ITER      Energy       Delta-E        Grad      Rot      Max-DP    RMS-DP
  6   -844.29650067  -0.0001360340  0.000257  0.000257  0.003080  0.000035
               *** Restarting incremental Fock matrix formation ***
  7   -844.29651611  -0.0000154374  0.000130  0.000892  0.002542  0.000025
  8   -844.29651098   0.0000051355  0.000292  0.000648  0.001015  0.000009
  9   -844.29651830  -0.0000073232  0.000035  0.000119  0.000532  0.000003
 10   -844.29651809   0.0000002120  0.000077  0.000089  0.000399  0.000002
 11   -844.29651836  -0.0000002756  0.000011  0.000031  0.000181  0.000002
 12   -844.29651836   0.0000000016  0.000018  0.000027  0.000062  0.000001
 13   -844.29651837  -0.0000000083  0.000004  0.000011  0.000068  0.000001
 14   -844.29651834   0.0000000333  0.000004  0.000007  0.000156  0.000001
                  ***Gradient check signals convergence***
              ***Rediagonalizing the Fockian in SOSCF/NRSCF***

               *****************************************************
               *                     SUCCESS                       *
               *           SCF CONVERGED AFTER  15 CYCLES          *
               *****************************************************


----------------
TOTAL SCF ENERGY
----------------

Total Energy       :         -844.29651837 Eh          -22974.47626 eV

Components:
Nuclear Repulsion  :         1310.62045177 Eh           35663.79561 eV
Electronic Energy  :        -2154.91697014 Eh          -58638.27187 eV
One Electron Energy:        -3747.74830423 Eh         -101981.41599 eV
Two Electron Energy:         1592.83133408 Eh           43343.14412 eV
CPCM Dielectric    :           -0.02802636 Eh              -0.76264 eV

Virial components:
Potential Energy   :        -1684.81748450 Eh          -45846.21453 eV
Kinetic Energy     :          840.52096612 Eh           22871.73826 eV
Virial Ratio       :            2.00449192


DFT components:
N(Alpha)           :       66.999945299809 electrons
N(Beta)            :       66.999945299809 electrons
N(Total)           :      133.999890599617 electrons
E(X)               :     -113.633303560729 Eh       
E(C)               :       -4.491928995024 Eh       
E(XC)              :     -118.125232555753 Eh       
DFET-embed. en.    :        0.000000000000 Eh       
CPCM Solvation Model Properties:
Surface-charge          :           -0.02946352
Charge-correction       :            0.00007585 Eh               0.00206 eV
Free-energy (cav+disp)  :  This term is not implemented in the current solvation scheme

---------------
SCF CONVERGENCE
---------------

  Last Energy change         ...   -3.5436e-08  Tolerance :   1.0000e-08
  Last MAX-Density change    ...    4.9873e-04  Tolerance :   1.0000e-07
  Last RMS-Density change    ...    3.8204e-06  Tolerance :   5.0000e-09
  Last Orbital Gradient      ...    1.1636e-06  Tolerance :   1.0000e-05
  Last Orbital Rotation      ...    3.5619e-06  Tolerance :   1.0000e-05

             **** THE GBW FILE WAS UPDATED (Dexketoprofen\Dexketoprofen_TPSS_def2-TZVP\Dexketoprofen_TPSS_def2-TZVP.orcainp.gbw) ****
             **** DENSITY Dexketoprofen\Dexketoprofen_TPSS_def2-TZVP\Dexketoprofen_TPSS_def2-TZVP.orcainp.scfp WAS UPDATED ****
             **** ENERGY FILE WAS UPDATED (Dexketoprofen\Dexketoprofen_TPSS_def2-TZVP\Dexketoprofen_TPSS_def2-TZVP.orcainp.en.tmp) ****
             **** THE GBW FILE WAS UPDATED (Dexketoprofen\Dexketoprofen_TPSS_def2-TZVP\Dexketoprofen_TPSS_def2-TZVP.orcainp.gbw) ****
             **** DENSITY Dexketoprofen\Dexketoprofen_TPSS_def2-TZVP\Dexketoprofen_TPSS_def2-TZVP.orcainp.scfp WAS UPDATED ****
----------------
ORBITAL ENERGIES
----------------

  NO   OCC          E(Eh)            E(eV) 
   0   2.0000     -18.935283      -515.2552 
   1   2.0000     -18.881280      -513.7857 
   2   2.0000     -18.876379      -513.6524 
   3   2.0000     -10.122520      -275.4478 
   4   2.0000     -10.076872      -274.2056 
   5   2.0000     -10.018081      -272.6058 
   6   2.0000     -10.013683      -272.4862 
   7   2.0000     -10.007888      -272.3285 
   8   2.0000     -10.006782      -272.2984 
   9   2.0000     -10.005225      -272.2560 
  10   2.0000     -10.003651      -272.2132 
  11   2.0000     -10.001722      -272.1607 
  12   2.0000     -10.001340      -272.1503 
  13   2.0000     -10.000015      -272.1142 
  14   2.0000      -9.999288      -272.0945 
  15   2.0000      -9.998593      -272.0755 
  16   2.0000      -9.996304      -272.0133 
  17   2.0000      -9.996181      -272.0099 
  18   2.0000      -9.982860      -271.6474 
  19   2.0000      -1.034607       -28.1531 
  20   2.0000      -0.977503       -26.5992 
  21   2.0000      -0.956452       -26.0264 
  22   2.0000      -0.814935       -22.1755 
  23   2.0000      -0.805525       -21.9195 
  24   2.0000      -0.754418       -20.5288 
  25   2.0000      -0.723155       -19.6781 
  26   2.0000      -0.701984       -19.1020 
  27   2.0000      -0.697880       -18.9903 
  28   2.0000      -0.684935       -18.6380 
  29   2.0000      -0.614681       -16.7263 
  30   2.0000      -0.607801       -16.5391 
  31   2.0000      -0.575159       -15.6509 
  32   2.0000      -0.574089       -15.6217 
  33   2.0000      -0.564472       -15.3601 
  34   2.0000      -0.550384       -14.9767 
  35   2.0000      -0.515736       -14.0339 
  36   2.0000      -0.492482       -13.4011 
  37   2.0000      -0.468404       -12.7459 
  38   2.0000      -0.461424       -12.5560 
  39   2.0000      -0.439312       -11.9543 
  40   2.0000      -0.432768       -11.7762 
  41   2.0000      -0.420841       -11.4517 
  42   2.0000      -0.418815       -11.3965 
  43   2.0000      -0.412396       -11.2219 
  44   2.0000      -0.403657       -10.9841 
  45   2.0000      -0.397300       -10.8111 
  46   2.0000      -0.387597       -10.5470 
  47   2.0000      -0.387305       -10.5391 
  48   2.0000      -0.386479       -10.5166 
  49   2.0000      -0.372858       -10.1460 
  50   2.0000      -0.366640        -9.9768 
  51   2.0000      -0.357176        -9.7193 
  52   2.0000      -0.341936        -9.3046 
  53   2.0000      -0.335080        -9.1180 
  54   2.0000      -0.330228        -8.9860 
  55   2.0000      -0.322750        -8.7825 
  56   2.0000      -0.320080        -8.7098 
  57   2.0000      -0.318324        -8.6620 
  58   2.0000      -0.310909        -8.4603 
  59   2.0000      -0.306576        -8.3423 
  60   2.0000      -0.290589        -7.9073 
  61   2.0000      -0.256442        -6.9781 
  62   2.0000      -0.246350        -6.7035 
  63   2.0000      -0.244012        -6.6399 
  64   2.0000      -0.240105        -6.5336 
  65   2.0000      -0.233351        -6.3498 
  66   2.0000      -0.219584        -5.9752 
  67   0.0000      -0.101399        -2.7592 
  68   0.0000      -0.054911        -1.4942 
  69   0.0000      -0.052267        -1.4223 
  70   0.0000      -0.043192        -1.1753 
  71   0.0000      -0.038688        -1.0528 
  72   0.0000       0.006300         0.1714 
  73   0.0000       0.020124         0.5476 
  74   0.0000       0.046964         1.2779 
  75   0.0000       0.050022         1.3612 
  76   0.0000       0.058483         1.5914 
  77   0.0000       0.061445         1.6720 
  78   0.0000       0.078585         2.1384 
  79   0.0000       0.079842         2.1726 
  80   0.0000       0.085652         2.3307 
  81   0.0000       0.087630         2.3845 
  82   0.0000       0.097021         2.6401 
  83   0.0000       0.100693         2.7400 
  84   0.0000       0.106005         2.8845 
  85   0.0000       0.114146         3.1061 
  86   0.0000       0.117735         3.2037 
  87   0.0000       0.121552         3.3076 
  88   0.0000       0.128275         3.4905 
  89   0.0000       0.139083         3.7846 
  90   0.0000       0.143813         3.9134 
  91   0.0000       0.147965         4.0263 
  92   0.0000       0.155118         4.2210 
  93   0.0000       0.161600         4.3974 
  94   0.0000       0.174721         4.7544 
  95   0.0000       0.181043         4.9264 
  96   0.0000       0.186671         5.0796 
  97   0.0000       0.188964         5.1420 
  98   0.0000       0.195117         5.3094 
  99   0.0000       0.199394         5.4258 
 100   0.0000       0.200856         5.4656 
 101   0.0000       0.205830         5.6009 
 102   0.0000       0.210875         5.7382 
 103   0.0000       0.215718         5.8700 
 104   0.0000       0.221321         6.0224 
 105   0.0000       0.224292         6.1033 
 106   0.0000       0.225215         6.1284 
 107   0.0000       0.229389         6.2420 
 108   0.0000       0.234059         6.3691 
 109   0.0000       0.234864         6.3910 
 110   0.0000       0.240161         6.5351 
 111   0.0000       0.243235         6.6188 
 112   0.0000       0.247920         6.7463 
 113   0.0000       0.255698         6.9579 
 114   0.0000       0.262665         7.1475 
 115   0.0000       0.268497         7.3062 
 116   0.0000       0.271045         7.3755 
 117   0.0000       0.280276         7.6267 
 118   0.0000       0.283671         7.7191 
 119   0.0000       0.287326         7.8185 
 120   0.0000       0.293687         7.9916 
 121   0.0000       0.297697         8.1008 
 122   0.0000       0.305066         8.3013 
 123   0.0000       0.309370         8.4184 
 124   0.0000       0.318307         8.6616 
 125   0.0000       0.324997         8.8436 
 126   0.0000       0.329349         8.9620 
 127   0.0000       0.334556         9.1037 
 128   0.0000       0.338617         9.2142 
 129   0.0000       0.346698         9.4341 
 130   0.0000       0.352013         9.5788 
 131   0.0000       0.353664         9.6237 
 132   0.0000       0.361732         9.8432 
 133   0.0000       0.365740         9.9523 
 134   0.0000       0.373861        10.1733 
 135   0.0000       0.375800        10.2260 
 136   0.0000       0.378167        10.2905 
 137   0.0000       0.385584        10.4923 
 138   0.0000       0.386180        10.5085 
 139   0.0000       0.389785        10.6066 
 140   0.0000       0.398068        10.8320 
 141   0.0000       0.404135        10.9971 
 142   0.0000       0.406047        11.0491 
 143   0.0000       0.410051        11.1581 
 144   0.0000       0.415220        11.2987 
 145   0.0000       0.417707        11.3664 
 146   0.0000       0.421921        11.4811 
 147   0.0000       0.424404        11.5486 
 148   0.0000       0.432522        11.7695 
 149   0.0000       0.445715        12.1285 
 150   0.0000       0.447795        12.1851 
 151   0.0000       0.449738        12.2380 
 152   0.0000       0.454006        12.3541 
 153   0.0000       0.463316        12.6075 
 154   0.0000       0.467096        12.7103 
 155   0.0000       0.471595        12.8328 
 156   0.0000       0.474005        12.8983 
 157   0.0000       0.478580        13.0228 
 158   0.0000       0.482900        13.1404 
 159   0.0000       0.487756        13.2725 
 160   0.0000       0.495540        13.4843 
 161   0.0000       0.501731        13.6528 
 162   0.0000       0.502017        13.6606 
 163   0.0000       0.509412        13.8618 
 164   0.0000       0.515624        14.0309 
 165   0.0000       0.524060        14.2604 
 166   0.0000       0.535877        14.5820 
 167   0.0000       0.550659        14.9842 
 168   0.0000       0.554615        15.0918 
 169   0.0000       0.559483        15.2243 
 170   0.0000       0.574597        15.6356 
 171   0.0000       0.580793        15.8042 
 172   0.0000       0.586877        15.9697 
 173   0.0000       0.601568        16.3695 
 174   0.0000       0.607010        16.5176 
 175   0.0000       0.614008        16.7080 
 176   0.0000       0.619460        16.8564 
 177   0.0000       0.623911        16.9775 
 178   0.0000       0.632714        17.2170 
 179   0.0000       0.636757        17.3270 
 180   0.0000       0.641493        17.4559 
 181   0.0000       0.645743        17.5716 
 182   0.0000       0.650870        17.7111 
 183   0.0000       0.655132        17.8270 
 184   0.0000       0.658223        17.9112 
 185   0.0000       0.666910        18.1475 
 186   0.0000       0.671155        18.2631 
 187   0.0000       0.679184        18.4815 
 188   0.0000       0.683436        18.5972 
 189   0.0000       0.691578        18.8188 
 190   0.0000       0.700210        19.0537 
 191   0.0000       0.710725        19.3398 
 192   0.0000       0.718602        19.5542 
 193   0.0000       0.719917        19.5899 
 194   0.0000       0.732025        19.9194 
 195   0.0000       0.740195        20.1417 
 196   0.0000       0.747862        20.3504 
 197   0.0000       0.751214        20.4416 
 198   0.0000       0.765364        20.8266 
 199   0.0000       0.771773        21.0010 
 200   0.0000       0.777440        21.1552 
 201   0.0000       0.781910        21.2769 
 202   0.0000       0.791432        21.5360 
 203   0.0000       0.794630        21.6230 
 204   0.0000       0.806589        21.9484 
 205   0.0000       0.810546        22.0561 
 206   0.0000       0.825456        22.4618 
 207   0.0000       0.832579        22.6556 
 208   0.0000       0.843189        22.9443 
 209   0.0000       0.853921        23.2364 
 210   0.0000       0.863882        23.5074 
 211   0.0000       0.865114        23.5409 
 212   0.0000       0.874939        23.8083 
 213   0.0000       0.875985        23.8368 
 214   0.0000       0.886862        24.1327 
 215   0.0000       0.889798        24.2126 
 216   0.0000       0.904972        24.6255 
 217   0.0000       0.909111        24.7382 
 218   0.0000       0.920489        25.0478 
 219   0.0000       0.924098        25.1460 
 220   0.0000       0.934716        25.4349 
 221   0.0000       0.946530        25.7564 
 222   0.0000       0.959112        26.0988 
 223   0.0000       0.969018        26.3683 
 224   0.0000       0.972665        26.4676 
 225   0.0000       0.976461        26.5709 
 226   0.0000       0.984179        26.7809 
 227   0.0000       0.996541        27.1173 
 228   0.0000       1.003684        27.3116 
 229   0.0000       1.016062        27.6484 
 230   0.0000       1.023427        27.8489 
 231   0.0000       1.042569        28.3697 
 232   0.0000       1.052051        28.6278 
 233   0.0000       1.054758        28.7014 
 234   0.0000       1.067288        29.0424 
 235   0.0000       1.075334        29.2613 
 236   0.0000       1.086607        29.5681 
 237   0.0000       1.101774        29.9808 
 238   0.0000       1.117756        30.4157 
 239   0.0000       1.123208        30.5641 
 240   0.0000       1.129870        30.7453 
 241   0.0000       1.139714        31.0132 
 242   0.0000       1.160269        31.5725 
 243   0.0000       1.167229        31.7619 
 244   0.0000       1.175160        31.9777 
 245   0.0000       1.178619        32.0719 
 246   0.0000       1.185570        32.2610 
 247   0.0000       1.192649        32.4536 
 248   0.0000       1.206896        32.8413 
 249   0.0000       1.214802        33.0565 
 250   0.0000       1.219159        33.1750 
 251   0.0000       1.226268        33.3684 
 252   0.0000       1.235089        33.6085 
 253   0.0000       1.239704        33.7341 
 254   0.0000       1.246895        33.9297 
 255   0.0000       1.263597        34.3842 
 256   0.0000       1.271351        34.5952 
 257   0.0000       1.278952        34.8020 
 258   0.0000       1.283569        34.9277 
 259   0.0000       1.290503        35.1164 
 260   0.0000       1.297123        35.2965 
 261   0.0000       1.312786        35.7227 
 262   0.0000       1.326922        36.1074 
 263   0.0000       1.332031        36.2464 
 264   0.0000       1.344132        36.5757 
 265   0.0000       1.357177        36.9307 
 266   0.0000       1.370915        37.3045 
 267   0.0000       1.375790        37.4371 
 268   0.0000       1.387630        37.7593 
 269   0.0000       1.388296        37.7775 
 270   0.0000       1.396855        38.0104 
 271   0.0000       1.415482        38.5172 
 272   0.0000       1.421169        38.6720 
 273   0.0000       1.431830        38.9621 
 274   0.0000       1.436752        39.0960 
 275   0.0000       1.447124        39.3782 
 276   0.0000       1.456727        39.6396 
 277   0.0000       1.460479        39.7417 
 278   0.0000       1.463860        39.8337 
 279   0.0000       1.478902        40.2430 
 280   0.0000       1.487680        40.4818 
 281   0.0000       1.500519        40.8312 
 282   0.0000       1.518454        41.3192 
 283   0.0000       1.520928        41.3865 
 284   0.0000       1.533564        41.7304 
 285   0.0000       1.540506        41.9193 
 286   0.0000       1.544788        42.0358 
 287   0.0000       1.556118        42.3441 
 288   0.0000       1.561942        42.5026 
 289   0.0000       1.573823        42.8259 
 290   0.0000       1.584707        43.1221 
 291   0.0000       1.588655        43.2295 
 292   0.0000       1.592216        43.3264 
 293   0.0000       1.605914        43.6991 
 294   0.0000       1.609826        43.8056 
 295   0.0000       1.612786        43.8861 
 296   0.0000       1.614393        43.9299 
 297   0.0000       1.623749        44.1844 
 298   0.0000       1.635984        44.5174 
 299   0.0000       1.643447        44.7205 
 300   0.0000       1.651858        44.9493 
 301   0.0000       1.654747        45.0280 
 302   0.0000       1.661219        45.2041 
 303   0.0000       1.672797        45.5191 
 304   0.0000       1.682571        45.7851 
 305   0.0000       1.684177        45.8288 
 306   0.0000       1.687551        45.9206 
 307   0.0000       1.703957        46.3670 
 308   0.0000       1.710911        46.5563 
 309   0.0000       1.715111        46.6706 
 310   0.0000       1.741062        47.3767 
 311   0.0000       1.758763        47.8584 
 312   0.0000       1.760969        47.9184 
 313   0.0000       1.772421        48.2300 
 314   0.0000       1.784248        48.5518 
 315   0.0000       1.798579        48.9418 
 316   0.0000       1.803550        49.0771 
 317   0.0000       1.818365        49.4802 
 318   0.0000       1.819598        49.5138 
 319   0.0000       1.822178        49.5840 
 320   0.0000       1.832034        49.8522 
 321   0.0000       1.843758        50.1712 
 322   0.0000       1.876864        51.0721 
 323   0.0000       1.892624        51.5009 
 324   0.0000       1.894573        51.5540 
 325   0.0000       1.909474        51.9594 
 326   0.0000       1.919093        52.2212 
 327   0.0000       1.929322        52.4995 
 328   0.0000       1.947170        52.9852 
 329   0.0000       1.958537        53.2945 
 330   0.0000       1.974551        53.7303 
 331   0.0000       1.989975        54.1500 
 332   0.0000       2.000417        54.4341 
 333   0.0000       2.010784        54.7162 
 334   0.0000       2.011856        54.7454 
 335   0.0000       2.029925        55.2371 
 336   0.0000       2.048231        55.7352 
 337   0.0000       2.049308        55.7645 
 338   0.0000       2.054610        55.9088 
 339   0.0000       2.061516        56.0967 
 340   0.0000       2.062865        56.1334 
 341   0.0000       2.076959        56.5169 
 342   0.0000       2.091900        56.9235 
 343   0.0000       2.107369        57.3444 
 344   0.0000       2.112712        57.4898 
 345   0.0000       2.117560        57.6217 
 346   0.0000       2.125613        57.8409 
 347   0.0000       2.133688        58.0606 
 348   0.0000       2.139723        58.2248 
 349   0.0000       2.157584        58.7109 
 350   0.0000       2.172400        59.1140 
 351   0.0000       2.178706        59.2856 
 352   0.0000       2.185484        59.4701 
 353   0.0000       2.194872        59.7255 
 354   0.0000       2.198079        59.8128 
 355   0.0000       2.208846        60.1058 
 356   0.0000       2.215064        60.2750 
 357   0.0000       2.229436        60.6660 
 358   0.0000       2.245149        61.0936 
 359   0.0000       2.252621        61.2969 
 360   0.0000       2.256875        61.4127 
 361   0.0000       2.276673        61.9514 
 362   0.0000       2.288876        62.2835 
 363   0.0000       2.307484        62.7898 
 364   0.0000       2.314886        62.9913 
 365   0.0000       2.327548        63.3358 
 366   0.0000       2.353532        64.0429 
 367   0.0000       2.366634        64.3994 
 368   0.0000       2.381367        64.8003 
 369   0.0000       2.389070        65.0099 
 370   0.0000       2.401727        65.3543 
 371   0.0000       2.412364        65.6438 
 372   0.0000       2.415180        65.7204 
 373   0.0000       2.427418        66.0534 
 374   0.0000       2.442213        66.4560 
 375   0.0000       2.454609        66.7933 
 376   0.0000       2.466166        67.1078 
 377   0.0000       2.468872        67.1814 
 378   0.0000       2.479967        67.4833 
 379   0.0000       2.498001        67.9741 
 380   0.0000       2.514042        68.4105 
 381   0.0000       2.523915        68.6792 
 382   0.0000       2.537472        69.0481 
 383   0.0000       2.557498        69.5930 
 384   0.0000       2.559439        69.6459 
 385   0.0000       2.562865        69.7391 
 386   0.0000       2.568680        69.8973 
 387   0.0000       2.579866        70.2017 
 388   0.0000       2.588950        70.4489 
 389   0.0000       2.596789        70.6622 
 390   0.0000       2.599672        70.7407 
 391   0.0000       2.603020        70.8318 
 392   0.0000       2.616238        71.1915 
 393   0.0000       2.624268        71.4100 
 394   0.0000       2.636996        71.7563 
 395   0.0000       2.638571        71.7992 
 396   0.0000       2.641187        71.8703 
 397   0.0000       2.648970        72.0821 
 398   0.0000       2.652345        72.1740 
 399   0.0000       2.659385        72.3655 
 400   0.0000       2.663762        72.4846 
 401   0.0000       2.680200        72.9319 
 402   0.0000       2.689590        73.1875 
 403   0.0000       2.695164        73.3391 
 404   0.0000       2.708285        73.6962 
 405   0.0000       2.712748        73.8176 
 406   0.0000       2.720064        74.0167 
 407   0.0000       2.725775        74.1721 
 408   0.0000       2.733076        74.3708 
 409   0.0000       2.743283        74.6485 
 410   0.0000       2.753237        74.9194 
 411   0.0000       2.758015        75.0494 
 412   0.0000       2.759172        75.0809 
 413   0.0000       2.765089        75.2419 
 414   0.0000       2.775737        75.5317 
 415   0.0000       2.781195        75.6802 
 416   0.0000       2.786742        75.8311 
 417   0.0000       2.799188        76.1698 
 418   0.0000       2.809067        76.4386 
 419   0.0000       2.815489        76.6133 
 420   0.0000       2.823412        76.8290 
 421   0.0000       2.827439        76.9385 
 422   0.0000       2.830205        77.0138 
 423   0.0000       2.840157        77.2846 
 424   0.0000       2.840976        77.3069 
 425   0.0000       2.852174        77.6116 
 426   0.0000       2.860046        77.8258 
 427   0.0000       2.873927        78.2035 
 428   0.0000       2.878592        78.3305 
 429   0.0000       2.885929        78.5301 
 430   0.0000       2.891314        78.6766 
 431   0.0000       2.914294        79.3020 
 432   0.0000       2.925092        79.5958 
 433   0.0000       2.932070        79.7857 
 434   0.0000       2.935731        79.8853 
 435   0.0000       2.951805        80.3227 
 436   0.0000       2.968661        80.7814 
 437   0.0000       2.980017        81.0904 
 438   0.0000       2.989619        81.3517 
 439   0.0000       2.995562        81.5134 
 440   0.0000       2.999905        81.6316 
 441   0.0000       3.010273        81.9137 
 442   0.0000       3.017176        82.1015 
 443   0.0000       3.024670        82.3054 
 444   0.0000       3.030288        82.4583 
 445   0.0000       3.042531        82.7915 
 446   0.0000       3.049006        82.9677 
 447   0.0000       3.055246        83.1375 
 448   0.0000       3.068561        83.4998 
 449   0.0000       3.077316        83.7380 
 450   0.0000       3.084377        83.9302 
 451   0.0000       3.094008        84.1922 
 452   0.0000       3.100932        84.3806 
 453   0.0000       3.111155        84.6588 
 454   0.0000       3.113086        84.7114 
 455   0.0000       3.115375        84.7737 
 456   0.0000       3.124045        85.0096 
 457   0.0000       3.132824        85.2485 
 458   0.0000       3.146137        85.6107 
 459   0.0000       3.154127        85.8282 
 460   0.0000       3.156389        85.8897 
 461   0.0000       3.167825        86.2009 
 462   0.0000       3.175960        86.4223 
 463   0.0000       3.180833        86.5549 
 464   0.0000       3.189862        86.8006 
 465   0.0000       3.192351        86.8683 
 466   0.0000       3.202982        87.1576 
 467   0.0000       3.212817        87.4252 
 468   0.0000       3.216690        87.5306 
 469   0.0000       3.234177        88.0064 
 470   0.0000       3.239287        88.1455 
 471   0.0000       3.244467        88.2864 
 472   0.0000       3.252918        88.5164 
 473   0.0000       3.261464        88.7490 
 474   0.0000       3.267317        88.9082 
 475   0.0000       3.273343        89.0722 
 476   0.0000       3.280425        89.2649 
 477   0.0000       3.296129        89.6922 
 478   0.0000       3.296579        89.7045 
 479   0.0000       3.298484        89.7563 
 480   0.0000       3.307605        90.0045 
 481   0.0000       3.315196        90.2111 
 482   0.0000       3.326632        90.5223 
 483   0.0000       3.330650        90.6316 
 484   0.0000       3.335526        90.7643 
 485   0.0000       3.337387        90.8149 
 486   0.0000       3.347891        91.1007 
 487   0.0000       3.356840        91.3443 
 488   0.0000       3.359100        91.4058 
 489   0.0000       3.364928        91.5643 
 490   0.0000       3.372566        91.7722 
 491   0.0000       3.383102        92.0589 
 492   0.0000       3.387345        92.1743 
 493   0.0000       3.407334        92.7183 
 494   0.0000       3.413984        92.8992 
 495   0.0000       3.423086        93.1469 
 496   0.0000       3.426786        93.2476 
 497   0.0000       3.443356        93.6985 
 498   0.0000       3.452682        93.9522 
 499   0.0000       3.461376        94.1888 
 500   0.0000       3.465753        94.3079 
 501   0.0000       3.478080        94.6434 
 502   0.0000       3.478252        94.6481 
 503   0.0000       3.486213        94.8647 
 504   0.0000       3.494081        95.0788 
 505   0.0000       3.496428        95.1426 
 506   0.0000       3.498656        95.2033 
 507   0.0000       3.517440        95.7144 
 508   0.0000       3.520496        95.7976 
 509   0.0000       3.525992        95.9471 
 510   0.0000       3.544166        96.4416 
 511   0.0000       3.552465        96.6675 
 512   0.0000       3.564411        96.9925 
 513   0.0000       3.574996        97.2806 
 514   0.0000       3.593606        97.7870 
 515   0.0000       3.603969        98.0690 
 516   0.0000       3.613660        98.3327 
 517   0.0000       3.626365        98.6784 
 518   0.0000       3.629808        98.7721 
 519   0.0000       3.651474        99.3617 
 520   0.0000       3.663813        99.6974 
 521   0.0000       3.672400        99.9311 
 522   0.0000       3.679549       100.1256 
 523   0.0000       3.697016       100.6009 
 524   0.0000       3.703806       100.7857 
 525   0.0000       3.719510       101.2130 
 526   0.0000       3.732060       101.5545 
 527   0.0000       3.754437       102.1634 
 528   0.0000       3.786062       103.0240 
 529   0.0000       3.795052       103.2686 
 530   0.0000       3.810798       103.6971 
 531   0.0000       3.816799       103.8604 
 532   0.0000       3.838273       104.4447 
 533   0.0000       3.860032       105.0368 
 534   0.0000       3.878298       105.5338 
 535   0.0000       3.887923       105.7958 
 536   0.0000       3.901399       106.1625 
 537   0.0000       3.912300       106.4591 
 538   0.0000       3.926623       106.8488 
 539   0.0000       3.944401       107.3326 
 540   0.0000       3.966574       107.9360 
 541   0.0000       3.974724       108.1578 
 542   0.0000       4.000722       108.8652 
 543   0.0000       4.015254       109.2606 
 544   0.0000       4.023914       109.4963 
 545   0.0000       4.042072       109.9904 
 546   0.0000       4.044736       110.0629 
 547   0.0000       4.051929       110.2586 
 548   0.0000       4.061608       110.5220 
 549   0.0000       4.070188       110.7554 
 550   0.0000       4.083248       111.1108 
 551   0.0000       4.112365       111.9031 
 552   0.0000       4.125460       112.2595 
 553   0.0000       4.141054       112.6838 
 554   0.0000       4.151088       112.9569 
[...]
  2 C s       :     2.832899  s :     2.832899
      pz      :     1.032126  p :     3.143224
      px      :     1.047999
      py      :     1.063099
      dz2     :     0.078852  d :     0.255135
      dxz     :     0.049671
      dyz     :     0.023671
      dx2y2   :     0.056821
      dxy     :     0.046120
      f0      :     0.002518  f :     0.025024
      f+1     :     0.005263
      f-1     :     0.003965
      f+2     :     0.003632
      f-2     :     0.004238
      f+3     :     0.001489
      f-3     :     0.003919
  3 C s       :     2.777409  s :     2.777409
      pz      :     0.941948  p :     2.630957
      px      :     0.937185
      py      :     0.751824
      dz2     :     0.175249  d :     0.910798
      dxz     :     0.322959
      dyz     :     0.089400
      dx2y2   :     0.149258
      dxy     :     0.173932
      f0      :     0.024419  f :     0.146528
      f+1     :     0.036616
      f-1     :     0.008142
      f+2     :     0.022723
      f-2     :     0.022135
      f+3     :     0.017272
      f-3     :     0.015221
  4 O s       :     3.347395  s :     3.347395
      pz      :     1.568539  p :     4.475380
      px      :     1.283108
      py      :     1.623733
      dz2     :     0.016657  d :     0.068157
      dxz     :     0.024226
      dyz     :     0.005921
      dx2y2   :     0.014079
      dxy     :     0.007274
      f0      :     0.000926  f :     0.004693
      f+1     :     0.001007
      f-1     :     0.000131
      f+2     :     0.001111
      f-2     :     0.000614
      f+3     :     0.000506
      f-3     :     0.000396
  5 O s       :     3.409236  s :     3.409236
      pz      :     1.607816  p :     4.446625
      px      :     1.497340
      py      :     1.341469
      dz2     :     0.008233  d :     0.064321
      dxz     :     0.019093
      dyz     :     0.001652
      dx2y2   :     0.020306
      dxy     :     0.015036
      f0      :     0.000701  f :     0.005972
      f+1     :     0.001144
      f-1     :     0.000129
      f+2     :     0.000995
      f-2     :     0.000349
      f+3     :     0.001376
      f-3     :     0.001279
  6 C s       :     2.714154  s :     2.714154
      pz      :     0.852240  p :     2.839467
      px      :     1.033025
      py      :     0.954202
      dz2     :     0.040352  d :     0.509669
      dxz     :     0.074111
      dyz     :     0.069830
      dx2y2   :     0.169340
      dxy     :     0.156036
      f0      :     0.003876  f :     0.055427
      f+1     :     0.004287
      f-1     :     0.004389
      f+2     :     0.006414
      f-2     :     0.007187
      f+3     :     0.015935
      f-3     :     0.013338
  7 C s       :     2.758568  s :     2.758568
      pz      :     0.871691  p :     2.878225
      px      :     0.999376
      py      :     1.007158
      dz2     :     0.027987  d :     0.380854
      dxz     :     0.043838
      dyz     :     0.053454
      dx2y2   :     0.100640
      dxy     :     0.154936
      f0      :     0.003257  f :     0.041638
      f+1     :     0.003708
      f-1     :     0.003409
      f+2     :     0.007418
      f-2     :     0.002409
      f+3     :     0.011566
      f-3     :     0.009872
  8 C s       :     2.714229  s :     2.714229
      pz      :     0.864889  p :     2.859700
      px      :     0.959514
      py      :     1.035297
      dz2     :     0.038678  d :     0.487209
      dxz     :     0.049999
      dyz     :     0.083530
      dx2y2   :     0.164801
      dxy     :     0.150201
      f0      :     0.003993  f :     0.054138
      f+1     :     0.004181
      f-1     :     0.004774
      f+2     :     0.005459
      f-2     :     0.007190
      f+3     :     0.015464
      f-3     :     0.013078
  9 C s       :     2.765483  s :     2.765483
      pz      :     0.870896  p :     2.895334
      px      :     1.030855
      py      :     0.993583
      dz2     :     0.033044  d :     0.381326
      dxz     :     0.069071
      dyz     :     0.021972
      dx2y2   :     0.145357
      dxy     :     0.111881
      f0      :     0.002980  f :     0.042377
      f+1     :     0.004225
      f-1     :     0.003517
      f+2     :     0.003327
      f-2     :     0.006669
      f+3     :     0.011527
      f-3     :     0.010132
 10 C s       :     2.770609  s :     2.770609
      pz      :     0.885600  p :     2.928957
      px      :     1.015733
      py      :     1.027624
      dz2     :     0.027433  d :     0.382743
      dxz     :     0.041738
      dyz     :     0.052991
      dx2y2   :     0.099956
      dxy     :     0.160624
      f0      :     0.003331  f :     0.042485
      f+1     :     0.003862
      f-1     :     0.003501
      f+2     :     0.007300
      f-2     :     0.002454
      f+3     :     0.011868
      f-3     :     0.010170
 11 C s       :     2.764775  s :     2.764775
      pz      :     0.865884  p :     2.894698
      px      :     0.985520
      py      :     1.043295
      dz2     :     0.025773  d :     0.380047
      dxz     :     0.024238
      dyz     :     0.071867
      dx2y2   :     0.138303
      dxy     :     0.119866
      f0      :     0.003325  f :     0.041948
      f+1     :     0.002690
      f-1     :     0.004435
      f+2     :     0.004022
      f-2     :     0.005632
      f+3     :     0.011313
      f-3     :     0.010530
 12 C s       :     2.749610  s :     2.749610
      pz      :     0.771872  p :     2.648809
      px      :     0.981733
      py      :     0.895203
      dz2     :     0.089187  d :     0.735833
      dxz     :     0.122992
      dyz     :     0.120969
      dx2y2   :     0.172696
      dxy     :     0.229989
      f0      :     0.007837  f :     0.104306
      f+1     :     0.005877
      f-1     :     0.014479
      f+2     :     0.014869
      f-2     :     0.018501
      f+3     :     0.027756
      f-3     :     0.014988
 13 O s       :     3.412328  s :     3.412328
      pz      :     1.339283  p :     4.434956
      px      :     1.657598
      py      :     1.438076
      dz2     :     0.007647  d :     0.065144
      dxz     :     0.006162
      dyz     :     0.019524
      dx2y2   :     0.015156
      dxy     :     0.016656
      f0      :     0.000421  f :     0.005610
      f+1     :     0.000037
      f-1     :     0.000931
      f+2     :     0.001292
      f-2     :     0.001011
      f+3     :     0.001033
      f-3     :     0.000885
 14 C s       :     2.715054  s :     2.715054
      pz      :     0.991194  p :     2.865273
      px      :     0.963020
      py      :     0.911059
      dz2     :     0.112772  d :     0.486610
      dxz     :     0.118317
      dyz     :     0.077848
      dx2y2   :     0.081086
      dxy     :     0.096587
      f0      :     0.006704  f :     0.054021
      f+1     :     0.011472
      f-1     :     0.005459
      f+2     :     0.006299
      f-2     :     0.010596
      f+3     :     0.006616
      f-3     :     0.006875
 15 C s       :     2.766490  s :     2.766490
      pz      :     0.978601  p :     2.899685
      px      :     1.001406
      py      :     0.919678
      dz2     :     0.070024  d :     0.382620
      dxz     :     0.122147
      dyz     :     0.057030
      dx2y2   :     0.077147
      dxy     :     0.056271
      f0      :     0.007395  f :     0.041979
      f+1     :     0.006535
      f-1     :     0.005336
      f+2     :     0.004535
      f-2     :     0.007023
      f+3     :     0.006681
      f-3     :     0.004474
 16 C s       :     2.772397  s :     2.772397
      pz      :     0.968838  p :     2.936569
      px      :     1.044378
      py      :     0.923353
      dz2     :     0.073814  d :     0.381266
      dxz     :     0.089777
      dyz     :     0.056363
      dx2y2   :     0.085347
      dxy     :     0.075965
      f0      :     0.004032  f :     0.042273
      f+1     :     0.009485
      f-1     :     0.003261
      f+2     :     0.005069
      f-2     :     0.007842
      f+3     :     0.006867
      f-3     :     0.005716
 17 C s       :     2.775199  s :     2.775199
      pz      :     1.008462  p :     2.918370
      px      :     0.994330
      py      :     0.915578
      dz2     :     0.104000  d :     0.384266
      dxz     :     0.098213
      dyz     :     0.062374
      dx2y2   :     0.046468
      dxy     :     0.073212
      f0      :     0.005988  f :     0.042190
      f+1     :     0.009542
      f-1     :     0.004899
      f+2     :     0.005843
      f-2     :     0.007889
      f+3     :     0.003240
      f-3     :     0.004788
 18 C s       :     2.772340  s :     2.772340
      pz      :     0.990696  p :     2.935406
      px      :     0.997605
      py      :     0.947105
      dz2     :     0.068737  d :     0.381290
      dxz     :     0.122557
      dyz     :     0.058632
      dx2y2   :     0.073846
      dxy     :     0.057518
      f0      :     0.007346  f :     0.042281
      f+1     :     0.006635
      f-1     :     0.005444
      f+2     :     0.004472
      f-2     :     0.007358
      f+3     :     0.006577
      f-3     :     0.004448
 19 C s       :     2.766478  s :     2.766478
      pz      :     0.960638  p :     2.896791
      px      :     1.020934
      py      :     0.915219
      dz2     :     0.068414  d :     0.381482
      dxz     :     0.088634
      dyz     :     0.058565
      dx2y2   :     0.088697
      dxy     :     0.077172
      f0      :     0.003899  f :     0.042168
      f+1     :     0.009315
      f-1     :     0.003253
      f+2     :     0.004949
      f-2     :     0.007827
      f+3     :     0.007043
      f-3     :     0.005883
 20 H s       :     0.811820  s :     0.811820
      pz      :     0.012493  p :     0.060527
      px      :     0.013459
      py      :     0.034575
 21 H s       :     0.810749  s :     0.810749
      pz      :     0.030017  p :     0.060494
      px      :     0.016188
      py      :     0.014288
 22 H s       :     0.811901  s :     0.811901
      pz      :     0.013098  p :     0.061043
      px      :     0.029624
      py      :     0.018321
 23 H s       :     0.636559  s :     0.636559
      pz      :     0.038081  p :     0.146048
      px      :     0.068639
      py      :     0.039327
 24 H s       :     0.775761  s :     0.775761
      pz      :     0.013989  p :     0.060406
      px      :     0.023862
      py      :     0.022556
 25 H s       :     0.785324  s :     0.785324
      pz      :     0.012776  p :     0.059845
      px      :     0.012285
      py      :     0.034785
 26 H s       :     0.788114  s :     0.788114
      pz      :     0.013576  p :     0.058754
      px      :     0.023135
      py      :     0.022043
 27 H s       :     0.782847  s :     0.782847
      pz      :     0.013870  p :     0.059304
      px      :     0.032695
      py      :     0.012738
 28 H s       :     0.781018  s :     0.781018
      pz      :     0.020542  p :     0.060259
      px      :     0.027559
      py      :     0.012158
 29 H s       :     0.789457  s :     0.789457
      pz      :     0.028838  p :     0.058853
      px      :     0.010904
      py      :     0.019111
 30 H s       :     0.789783  s :     0.789783
      pz      :     0.012610  p :     0.058692
      px      :     0.028252
      py      :     0.017831
 31 H s       :     0.789834  s :     0.789834
      pz      :     0.020083  p :     0.058752
      px      :     0.026547
      py      :     0.012122
 32 H s       :     0.786115  s :     0.786115
      pz      :     0.028645  p :     0.059803
      px      :     0.010887
      py      :     0.020271


                      *****************************
                      * MAYER POPULATION ANALYSIS *
                      *****************************

  NA   - Mulliken gross atomic population
  ZA   - Total nuclear charge
  QA   - Mulliken gross atomic charge
  VA   - Mayer's total valence
  BVA  - Mayer's bonded valence
  FA   - Mayer's free valence

  ATOM       NA         ZA         QA         VA         BVA        FA
  0 H      0.8681     1.0000     0.1319     0.9696     0.9696     0.0000
  1 C      6.0368     6.0000    -0.0368     3.7479     3.7479     0.0000
  2 C      6.3926     6.0000    -0.3926     3.9616     3.9616     0.0000
  3 C      5.7286     6.0000     0.2714     4.3619     4.3619    -0.0000
  4 O      8.3561     8.0000    -0.3561     2.1254     2.1254    -0.0000
  5 O      8.3582     8.0000    -0.3582     2.1452     2.1452    -0.0000
  6 C      5.8714     6.0000     0.1286     3.7259     3.7259    -0.0000
  7 C      6.3228     6.0000    -0.3228     3.9685     3.9685     0.0000
  8 C      5.8077     6.0000     0.1923     3.4960     3.4960     0.0000
  9 C      6.1957     6.0000    -0.1957     3.9504     3.9504    -0.0000
 10 C      6.1233     6.0000    -0.1233     3.8658     3.8658     0.0000
 11 C      6.1857     6.0000    -0.1857     3.9030     3.9030    -0.0000
 12 C      5.7812     6.0000     0.2188     3.9633     3.9633     0.0000
 13 O      8.3769     8.0000    -0.3769     2.1026     2.1026     0.0000
 14 C      5.8575     6.0000     0.1425     3.5377     3.5377    -0.0000
 15 C      6.2103     6.0000    -0.2103     3.9358     3.9358    -0.0000
 16 C      6.1337     6.0000    -0.1337     3.8755     3.8755     0.0000
 17 C      6.1089     6.0000    -0.1089     3.8850     3.8850    -0.0000
 18 C      6.1258     6.0000    -0.1258     3.8808     3.8808     0.0000
 19 C      6.1968     6.0000    -0.1968     3.9593     3.9593     0.0000
 20 H      0.8629     1.0000     0.1371     0.9698     0.9698     0.0000
 21 H      0.8661     1.0000     0.1339     0.9719     0.9719     0.0000
 22 H      0.8658     1.0000     0.1342     0.9797     0.9797     0.0000
 23 H      0.6297     1.0000     0.3703     0.8800     0.8800     0.0000
 24 H      0.8481     1.0000     0.1519     0.9676     0.9676    -0.0000
 25 H      0.8695     1.0000     0.1305     0.9891     0.9891    -0.0000
 26 H      0.8612     1.0000     0.1388     0.9621     0.9621     0.0000
 27 H      0.8650     1.0000     0.1350     0.9792     0.9792    -0.0000
 28 H      0.8415     1.0000     0.1585     0.9569     0.9569     0.0000
 29 H      0.8610     1.0000     0.1390     0.9612     0.9612    -0.0000
 30 H      0.8589     1.0000     0.1411     0.9595     0.9595     0.0000
 31 H      0.8614     1.0000     0.1386     0.9616     0.9616    -0.0000
 32 H      0.8707     1.0000     0.1293     0.9907     0.9907    -0.0000

  Mayer bond orders larger than 0.100000
B(  0-H ,  1-C ) :   0.9083 B(  1-C ,  2-C ) :   0.9937 B(  1-C ,  3-C ) :   0.9831 
B(  1-C ,  6-C ) :   0.9275 B(  2-C , 20-H ) :   0.9618 B(  2-C , 21-H ) :   0.9617 
B(  2-C , 22-H ) :   0.9592 B(  3-C ,  4-O ) :   1.2284 B(  3-C ,  5-O ) :   2.0471 
B(  4-O , 23-H ) :   0.8378 B(  6-C ,  7-C ) :   1.3362 B(  6-C , 11-C ) :   1.3253 
B(  7-C ,  8-C ) :   1.3142 B(  7-C , 24-H ) :   0.9838 B(  8-C ,  9-C ) :   1.3070 
B(  8-C , 12-C ) :   0.9604 B(  9-C , 10-C ) :   1.3942 B(  9-C , 25-H ) :   0.9816 
B( 10-C , 11-C ) :   1.3708 B( 10-C , 26-H ) :   0.9801 B( 11-C , 27-H ) :   0.9745 
B( 12-C , 13-O ) :   1.9610 B( 12-C , 14-C ) :   0.9870 B( 14-C , 15-C ) :   1.3103 
B( 14-C , 19-C ) :   1.3104 B( 15-C , 16-C ) :   1.3946 B( 15-C , 28-H ) :   0.9708 
B( 16-C , 17-C ) :   1.3799 B( 16-C , 29-H ) :   0.9765 B( 17-C , 18-C ) :   1.3623 
B( 17-C , 30-H ) :   0.9712 B( 18-C , 19-C ) :   1.4221 B( 18-C , 31-H ) :   0.9768 
B( 19-C , 32-H ) :   0.9801 

-------
TIMINGS
-------

Total SCF time: 0 days 0 hours 1 min 9 sec 

Total time                  ....      69.093 sec
Sum of individual times     ....      68.423 sec  ( 99.0%)

Fock matrix formation       ....      66.523 sec  ( 96.3%)
  Split-RI-J                ....      13.414 sec  ( 20.2% of F)
  XC integration            ....      32.872 sec  ( 49.4% of F)
    Basis function eval.    ....       4.961 sec  ( 15.1% of XC)
    Density eval.           ....      15.801 sec  ( 48.1% of XC)
    XC-Functional eval.     ....       0.663 sec  (  2.0% of XC)
    XC-Potential eval.      ....      10.203 sec  ( 31.0% of XC)
Diagonalization             ....       0.054 sec  (  0.1%)
Density matrix formation    ....       0.036 sec  (  0.1%)
Population analysis         ....       0.057 sec  (  0.1%)
Initial guess               ....       0.058 sec  (  0.1%)
Orbital Transformation      ....       0.000 sec  (  0.0%)
Orbital Orthonormalization  ....       0.045 sec  (  0.1%)
DIIS solution               ....       0.021 sec  (  0.0%)
SOSCF solution              ....       0.344 sec  (  0.5%)
Grid generation             ....       1.330 sec  (  1.9%)

Maximum memory used throughout the entire SCF-calculation: 414.7 MB

-------------------------   --------------------
FINAL SINGLE POINT ENERGY      -844.300185532764
-------------------------   --------------------

                                *** OPTIMIZATION RUN DONE ***

                            ***************************************
                            *     ORCA property calculations      *
                            ***************************************

                                    ---------------------
                                    Active property flags
                                    ---------------------
   (+) Dipole Moment


------------------------------------------------------------------------------
                       ORCA ELECTRIC PROPERTIES CALCULATION
------------------------------------------------------------------------------

Dipole Moment Calculation                       ... on
Quadrupole Moment Calculation                   ... off
Polarizability Calculation                      ... off
GBWName                                         ... Dexketoprofen\Dexketoprofen_TPSS_def2-TZVP\Dexketoprofen_TPSS_def2-TZVP.orcainp.gbw
Electron density                                ... Dexketoprofen\Dexketoprofen_TPSS_def2-TZVP\Dexketoprofen_TPSS_def2-TZVP.orcainp.scfp
The origin for moment calculation is the CENTER OF MASS  = ( 8.067263,  3.662434  0.014631)

-------------
DIPOLE MOMENT
-------------
                                X             Y             Z
Electronic contribution:      1.74863       4.35677       2.70420
Nuclear contribution   :     -0.07694      -5.36056      -2.87155
                        -----------------------------------------
Total Dipole Moment    :      1.67168      -1.00379      -0.16735
                        -----------------------------------------
Magnitude (a.u.)       :      1.95707
Magnitude (Debye)      :      4.97447



--------------------
Rotational spectrum 
--------------------
 
Rotational constants in cm-1:     0.020816     0.007181     0.005939 
Rotational constants in MHz :   624.054042   215.277051   178.056877 

 Dipole components along the rotational axes: 
x,y,z [a.u.] :     1.201412     1.438320    -0.563880 
x,y,z [Debye]:     3.053747     3.655920    -1.433270 

 

Timings for individual modules:

Sum of individual times         ...     2522.413 sec (=  42.040 min)
GTO integral calculation        ...       11.579 sec (=   0.193 min)   0.5 %
SCF iterations                  ...     1982.787 sec (=  33.046 min)  78.6 %
SCF Gradient evaluation         ...      526.709 sec (=   8.778 min)  20.9 %
Geometry relaxation             ...        1.338 sec (=   0.022 min)   0.1 %
                             ****ORCA TERMINATED NORMALLY****
TOTAL RUN TIME: 0 days 0 hours 42 minutes 4 seconds 295 msec
