
                                 *****************
                                 * O   R   C   A *
                                 *****************

                                            #,                                       
                                            ###                                      
                                            ####                                     
                                            #####                                    
                                            ######                                   
                                           ########,                                 
                                     ,,################,,,,,                         
                               ,,#################################,,                 
                          ,,##########################################,,             
                       ,#########################################, ''#####,          
                    ,#############################################,,   '####,        
                  ,##################################################,,,,####,       
                ,###########''''           ''''###############################       
              ,#####''   ,,,,##########,,,,          '''####'''          '####       
            ,##' ,,,,###########################,,,                        '##       
           ' ,,###''''                  '''############,,,                           
         ,,##''                                '''############,,,,        ,,,,,,###''
      ,#''                                            '''#######################'''  
     '                                                          ''''####''''         
             ,#######,   #######,   ,#######,      ##                                
            ,#'     '#,  ##    ##  ,#'     '#,    #''#        ######   ,####,        
            ##       ##  ##   ,#'  ##            #'  '#       #        #'  '#        
            ##       ##  #######   ##           ,######,      #####,   #    #        
            '#,     ,#'  ##    ##  '#,     ,#' ,#      #,         ##   #,  ,#        
             '#######'   ##     ##  '#######'  #'      '#     #####' # '####'        



                  #######################################################
                  #                        -***-                        #
                  #          Department of theory and spectroscopy      #
                  #    Directorship and core code : Frank Neese         #
                  #        Max Planck Institute fuer Kohlenforschung    #
                  #                Kaiser Wilhelm Platz 1               #
                  #                 D-45470 Muelheim/Ruhr               #
                  #                      Germany                        #
                  #                                                     #
                  #                  All rights reserved                #
                  #                        -***-                        #
                  #######################################################



                         Program Version 5.0.4 -  RELEASE  -

 With contributions from (in alphabetic order):
   Daniel Aravena         : Magnetic Suceptibility
   Michael Atanasov       : Ab Initio Ligand Field Theory (pilot matlab implementation)
   Alexander A. Auer      : GIAO ZORA, VPT2 properties, NMR spectrum
   Ute Becker             : Parallelization
   Giovanni Bistoni       : ED, misc. LED, open-shell LED, HFLD
   Martin Brehm           : Molecular dynamics
   Dmytro Bykov           : SCF Hessian
   Vijay G. Chilkuri      : MRCI spin determinant printing, contributions to CSF-ICE
   Dipayan Datta          : RHF DLPNO-CCSD density
   Achintya Kumar Dutta   : EOM-CC, STEOM-CC
   Dmitry Ganyushin       : Spin-Orbit,Spin-Spin,Magnetic field MRCI
   Miquel Garcia          : C-PCM and meta-GGA Hessian, CC/C-PCM, Gaussian charge scheme
   Yang Guo               : DLPNO-NEVPT2, F12-NEVPT2, CIM, IAO-localization
   Andreas Hansen         : Spin unrestricted coupled pair/coupled cluster methods
   Benjamin Helmich-Paris : MC-RPA, TRAH-SCF, COSX integrals
   Lee Huntington         : MR-EOM, pCC
   Robert Izsak           : Overlap fitted RIJCOSX, COSX-SCS-MP3, EOM
   Marcus Kettner         : VPT2
   Christian Kollmar      : KDIIS, OOCD, Brueckner-CCSD(T), CCSD density, CASPT2, CASPT2-K
   Simone Kossmann        : Meta GGA functionals, TD-DFT gradient, OOMP2, MP2 Hessian
   Martin Krupicka        : Initial AUTO-CI
   Lucas Lang             : DCDCAS
   Marvin Lechner         : AUTO-CI (C++ implementation), FIC-MRCC
   Dagmar Lenk            : GEPOL surface, SMD
   Dimitrios Liakos       : Extrapolation schemes; Compound Job, initial MDCI parallelization
   Dimitrios Manganas     : Further ROCIS development; embedding schemes
   Dimitrios Pantazis     : SARC Basis sets
   Anastasios Papadopoulos: AUTO-CI, single reference methods and gradients
   Taras Petrenko         : DFT Hessian,TD-DFT gradient, ASA, ECA, R-Raman, ABS, FL, XAS/XES, NRVS
   Peter Pinski           : DLPNO-MP2, DLPNO-MP2 Gradient
   Christoph Reimann      : Effective Core Potentials
   Marius Retegan         : Local ZFS, SOC
   Christoph Riplinger    : Optimizer, TS searches, QM/MM, DLPNO-CCSD(T), (RO)-DLPNO pert. Triples
   Tobias Risthaus        : Range-separated hybrids, TD-DFT gradient, RPA, STAB
   Michael Roemelt        : Original ROCIS implementation
   Masaaki Saitow         : Open-shell DLPNO-CCSD energy and density
   Barbara Sandhoefer     : DKH picture change effects
   Avijit Sen             : IP-ROCIS
   Kantharuban Sivalingam : CASSCF convergence, NEVPT2, FIC-MRCI
   Bernardo de Souza      : ESD, SOC TD-DFT
   Georgi Stoychev        : AutoAux, RI-MP2 NMR, DLPNO-MP2 response
   Willem Van den Heuvel  : Paramagnetic NMR
   Boris Wezisla          : Elementary symmetry handling
   Frank Wennmohs         : Technical directorship


 We gratefully acknowledge several colleagues who have allowed us to
 interface, adapt or use parts of their codes:
   Stefan Grimme, W. Hujo, H. Kruse, P. Pracht,  : VdW corrections, initial TS optimization,
                  C. Bannwarth, S. Ehlert          DFT functionals, gCP, sTDA/sTD-DF
   Ed Valeev, F. Pavosevic, A. Kumar             : LibInt (2-el integral package), F12 methods
   Garnet Chan, S. Sharma, J. Yang, R. Olivares  : DMRG
   Ulf Ekstrom                                   : XCFun DFT Library
   Mihaly Kallay                                 : mrcc  (arbitrary order and MRCC methods)
   Jiri Pittner, Ondrej Demel                    : Mk-CCSD
   Frank Weinhold                                : gennbo (NPA and NBO analysis)
   Christopher J. Cramer and Donald G. Truhlar   : smd solvation model
   Lars Goerigk                                  : TD-DFT with DH, B97 family of functionals
   V. Asgeirsson, H. Jonsson                     : NEB implementation
   FAccTs GmbH                                   : IRC, NEB, NEB-TS, DLPNO-Multilevel, CI-OPT
                                                   MM, QMMM, 2- and 3-layer-ONIOM, Crystal-QMMM,
                                                   LR-CPCM, SF, NACMEs, symmetry and pop. for TD-DFT,
                                                   nearIR, NL-DFT gradient (VV10), updates on ESD,
                                                   ML-optimized integration grids
   S Lehtola, MJT Oliveira, MAL Marques          : LibXC Library
   Liviu Ungur et al                             : ANISO software


 Your calculation uses the libint2 library for the computation of 2-el integrals
 For citations please refer to: http://libint.valeyev.net

 Your ORCA version has been built with support for libXC version: 5.1.0
 For citations please refer to: https://tddft.org/programs/libxc/

 This ORCA versions uses:
   CBLAS   interface :  Fast vector & matrix operations
   LAPACKE interface :  Fast linear algebra routines
   Shared memory     :  Shared parallel matrices


================================================================================

----- Orbital basis set information -----
Your calculation utilizes the basis: 6-311+G**
   H, Li - Ne  : R. Krishnan, J. S. Binkley, R. Seeger and J. A. Pople, J. Chem. Phys. 72, 650 (1980).
   Na - Ar     : A. D. McLean and G. S. Chandler J. Chem. Phys. 72, 5639, (1980).
   K  - Ca     : J.-P. Blaudeau, M. P. McGrath, L. A. Curtiss and L. Radom, J. Chem. Phys. 107, 5016 (1997).
   Ga - Kr     : L. A. Curtiss, M. P. McGrath, J.-P. Blandeau, N. E. Davis, R. C. Binning and L. Radom, J. Chem. Phys. 103, 6104 (1995).
   Pol./Diff.
   H, Li - Cl  : T. Clark, J. Chandrasekhar and P. v. R. Schleyer, J. Comp. Chem. 4, 294 (1983).
   H - Ne      : M. J. Frisch, J. A. Pople and J. S. Binkley, J. Chem. Phys. 80, 3265 (1984).

----- AuxJ basis set information -----
Your calculation utilizes the auxiliary basis: def2/J
   F. Weigend, Phys. Chem. Chem. Phys. 8, 1057 (2006).

================================================================================
                                        WARNINGS
                       Please study these warnings very carefully!
================================================================================


WARNING: Geometry Optimization
  ===> : Switching off AutoStart
         For restart on a previous wavefunction, please use MOREAD

INFO   : the flag for use of the SHARK integral package has been found!

================================================================================
                                       INPUT FILE
================================================================================
NAME = Ibuprofeno\Ibuprofeno_PBE_6-311+G\Ibuprofeno_PBE_6-311+G.orcainp
|  1> # ORCA input file
|  2> # 
|  3> !PBE 6-311+G** Opt CPCM(WATER)
|  4> 
|  5> * xyz 0 1
|  6>    C        2.67569         1.76515         3.50557
|  7>    C        2.36944         0.52730         2.66006
|  8>    C        0.85304         0.35239         2.53184
|  9>    C        3.01280         0.61958         1.26293
| 10>    C        4.52308         0.73287         1.26152
| 11>    C        5.32588        -0.26385         1.83075
| 12>    C        6.72138        -0.18302         1.76021
| 13>    C        7.34776         0.88750         1.10340
| 14>    C        6.53877         1.90312         0.57006
| 15>    C        5.14455         1.82624         0.64881
| 16>    C        8.85935         0.87626         0.89416
| 17>    C        9.16989         0.86797        -0.60844
| 18>    C        9.67830         1.97118         1.57297
| 19>    O        9.02053         2.78926         2.42048
| 20>    O       10.88237         2.10266         1.39315
| 21>    H        2.20498         1.68559         4.49092
| 22>    H        2.30498         2.67554         3.02336
| 23>    H        3.75199         1.87974         3.66775
| 24>    H        2.76094        -0.35184         3.18620
| 25>    H        0.40084         1.17948         1.97345
| 26>    H        0.38024         0.31473         3.51918
| 27>    H        0.61040        -0.58007         2.01109
| 28>    H        2.58137         1.47469         0.72497
| 29>    H        2.74568        -0.26733         0.67243
| 30>    H        4.87092        -1.12910         2.30841
| 31>    H        7.30958        -0.99192         2.19026
| 32>    H        6.98078         2.75448         0.05361
| 33>    H        4.54773         2.61497         0.19900
| 34>    H        9.24509        -0.06091         1.31903
| 35>    H        8.79507         1.76990        -1.10604
| 36>    H        8.71091         0.00118        -1.09752
| 37>    H       10.24776         0.82625        -0.79396
| 38>    H        8.06926         2.59022         2.53077
| 39> *
| 40> 
| 41>                          ****END OF INPUT****
================================================================================

                       *****************************
                       * Geometry Optimization Run *
                       *****************************

Geometry optimization settings:
Update method            Update   .... BFGS
Choice of coordinates    CoordSys .... Z-matrix Internals
Initial Hessian          InHess   .... Almoef's Model

Convergence Tolerances:
Energy Change            TolE     ....  5.0000e-06 Eh
Max. Gradient            TolMAXG  ....  3.0000e-04 Eh/bohr
RMS Gradient             TolRMSG  ....  1.0000e-04 Eh/bohr
Max. Displacement        TolMAXD  ....  4.0000e-03 bohr
RMS Displacement         TolRMSD  ....  2.0000e-03 bohr
Strict Convergence                ....  False
------------------------------------------------------------------------------
                        ORCA OPTIMIZATION COORDINATE SETUP
------------------------------------------------------------------------------

The optimization will be done in new redundant internal coordinates
Making redundant internal coordinates   ...  (new redundants) done
Evaluating the initial hessian          ...  (Almloef) done
Evaluating the coordinates              ...  done
Calculating the B-matrix                .... done
Calculating the G-matrix                .... done
Diagonalizing the G-matrix              .... done
Small eigenvalue found = 1.026e-02
Small eigenvalue found = 2.000e-02
Small eigenvalue found = 2.503e-02
Small eigenvalue found = 2.962e-02
The first mode is                       ....   79
The number of degrees of freedom        ....   93

    -----------------------------------------------------------------
                    Redundant Internal Coordinates


    -----------------------------------------------------------------
         Definition                    Initial Value    Approx d2E/dq
    -----------------------------------------------------------------
      1. B(C   1,C   0)                  1.5300         0.373553   
      2. B(C   2,C   1)                  1.5318         0.371072   
      3. B(C   3,C   1)                  1.5409         0.358900   
      4. B(C   4,C   3)                  1.5145         0.395429   
      5. B(C   5,C   4)                  1.4007         0.600713   
      6. B(C   6,C   5)                  1.3996         0.603107   
      7. B(C   7,C   6)                  1.4035         0.594603   
      8. B(C   8,C   7)                  1.4037         0.594109   
      9. B(C   9,C   8)                  1.3986         0.605461   
     10. B(C   9,C   4)                  1.3990         0.604560   
     11. B(C  10,C   7)                  1.5260         0.379043   
     12. B(C  11,C  10)                  1.5344         0.367617   
     13. B(C  12,C  10)                  1.5265         0.378359   
     14. B(O  13,C  12)                  1.3491         0.650217   
     15. B(O  14,C  12)                  1.2245         1.027817   
     16. B(H  15,C   0)                  1.0949         0.353672   
     17. B(H  16,C   0)                  1.0949         0.353702   
     18. B(H  17,C   0)                  1.0945         0.354241   
     19. B(H  18,C   1)                  1.0968         0.351209   
     20. B(H  19,C   2)                  1.0956         0.352754   
     21. B(H  20,C   2)                  1.0954         0.353088   
     22. B(H  21,C   2)                  1.0952         0.353243   
     23. B(H  22,C   3)                  1.0985         0.349004   
     24. B(H  23,C   3)                  1.0985         0.349058   
     25. B(H  24,C   5)                  1.0880         0.362718   
     26. B(H  25,C   6)                  1.0887         0.361840   
     27. B(H  26,C   8)                  1.0895         0.360825   
     28. B(H  27,C   9)                  1.0866         0.364676   
     29. B(H  28,C  10)                  1.0989         0.348507   
     30. B(H  29,C  11)                  1.0962         0.352039   
     31. B(H  30,C  11)                  1.0960         0.352267   
     32. B(H  31,C  11)                  1.0945         0.354177   
     33. B(H  32,H  17)                  4.5207         0.000000   
     34. B(H  32,O  13)                  0.9781         0.486493   
     35. A(C   1,C   0,H  15)          110.6392         0.323358   
     36. A(H  15,C   0,H  17)          107.2791         0.289273   
     37. A(C   1,C   0,H  17)          111.3112         0.323444   
     38. A(H  16,C   0,H  17)          108.1298         0.289277   
     39. A(C   1,C   0,H  16)          111.1962         0.323363   
     40. A(H  15,C   0,H  16)          108.1324         0.289204   
     41. A(C   0,C   1,C   3)          111.6558         0.360871   
     42. A(C   2,C   1,H  18)          107.5765         0.322635   
     43. A(C   2,C   1,C   3)          110.1366         0.360461   
     44. A(C   3,C   1,H  18)          109.5064         0.320878   
     45. A(C   0,C   1,H  18)          108.1767         0.322988   
     46. A(C   0,C   1,C   2)          109.6809         0.362931   
     47. A(C   1,C   2,H  19)          111.4102         0.322868   
     48. A(H  20,C   2,H  21)          107.6791         0.289071   
     49. A(C   1,C   2,H  20)          110.8406         0.322918   
     50. A(H  19,C   2,H  21)          107.9960         0.289028   
     51. A(C   1,C   2,H  21)          110.8745         0.322941   
     52. A(H  19,C   2,H  20)          107.8908         0.289008   
     53. A(C   1,C   3,H  23)          109.7259         0.320556   
     54. A(C   4,C   3,H  22)          109.4481         0.325684   
     55. A(H  22,C   3,H  23)          105.6489         0.288007   
     56. A(C   1,C   3,C   4)          114.9403         0.364395   
     57. A(C   1,C   3,H  22)          109.0662         0.320548   
     58. A(C   4,C   3,H  23)          107.6010         0.325692   
     59. A(C   5,C   4,C   9)          118.6543         0.429657   
     60. A(C   3,C   4,C   5)          121.1934         0.398447   
     61. A(C   3,C   4,C   9)          120.1232         0.398895   
     62. A(C   4,C   5,C   6)          120.6557         0.429471   
     63. A(C   6,C   5,H  24)          119.0107         0.351694   
     64. A(C   4,C   5,H  24)          120.3073         0.351458   
     65. A(C   5,C   6,C   7)          120.8390         0.428684   
     66. A(C   7,C   6,H  25)          120.6948         0.350708   
     67. A(C   5,C   6,H  25)          118.4164         0.351550   
     68. A(C   8,C   7,C  10)          121.6075         0.394731   
     69. A(C   6,C   7,C  10)          120.0414         0.394789   
     70. A(C   6,C   7,C   8)          118.1949         0.427531   
     71. A(C   9,C   8,H  26)          118.3014         0.351615   
     72. A(C   7,C   8,C   9)          120.8885         0.428920   
     73. A(C   7,C   8,H  26)          120.7767         0.350492   
     74. A(C   4,C   9,C   8)          120.6960         0.430264   
     75. A(C   4,C   9,H  27)          120.3069         0.352158   
     76. A(C   8,C   9,H  27)          118.9703         0.352247   
     77. A(C   7,C  10,C  11)          109.5594         0.363255   
     78. A(C  12,C  10,H  28)          104.5635         0.323256   
     79. A(C  11,C  10,H  28)          107.6362         0.321734   
     80. A(C   7,C  10,H  28)          107.5156         0.323352   
     81. A(C  11,C  10,C  12)          109.3151         0.363143   
     82. A(C   7,C  10,C  12)          117.7194         0.365049   
     83. A(H  30,C  11,H  31)          107.8562         0.289085   
     84. A(H  29,C  11,H  31)          106.9273         0.289055   
     85. A(C  10,C  11,H  31)          111.4387         0.322586   
     86. A(H  29,C  11,H  30)          107.7563         0.288811   
     87. A(C  10,C  11,H  30)          110.8867         0.322300   
     88. A(C  10,C  11,H  29)          111.7709         0.322266   
     89. A(O  13,C  12,O  14)          120.4344         0.473671   
     90. A(C  10,C  12,O  14)          122.6318         0.432126   
     91. A(C  10,C  12,O  13)          116.9172         0.398346   
     92. A(C  12,O  13,H  32)          114.9362         0.368914   
     93. D(H  18,C   1,C   0,H  16)    179.9583         0.011142   
     94. D(H  18,C   1,C   0,H  17)     59.3258         0.011142   
     95. D(C   2,C   1,C   0,H  16)    -62.9771         0.011142   
     96. D(C   3,C   1,C   0,H  15)    179.5763         0.011142   
     97. D(C   2,C   1,C   0,H  17)    176.3904         0.011142   
     98. D(C   2,C   1,C   0,H  15)     57.2054         0.011142   
     99. D(C   3,C   1,C   0,H  16)     59.3939         0.011142   
    100. D(C   3,C   1,C   0,H  17)    -61.2386         0.011142   
    101. D(H  18,C   1,C   0,H  15)    -59.8593         0.011142   
    102. D(H  19,C   2,C   1,C   3)    -58.1958         0.011003   
    103. D(H  19,C   2,C   1,H  18)   -177.4850         0.011003   
    104. D(H  21,C   2,C   1,C   0)   -174.6146         0.011003   
    105. D(H  20,C   2,C   1,C   3)   -178.3507         0.011003   
    106. D(H  20,C   2,C   1,H  18)     62.3601         0.011003   
    107. D(H  21,C   2,C   1,H  18)    -57.1741         0.011003   
    108. D(H  21,C   2,C   1,C   3)     62.1151         0.011003   
    109. D(H  19,C   2,C   1,C   0)     65.0745         0.011003   
    110. D(H  20,C   2,C   1,C   0)    -55.0803         0.011003   
    111. D(H  23,C   3,C   1,C   2)    -56.0076         0.010339   
    112. D(H  23,C   3,C   1,C   0)   -178.1169         0.010339   
    113. D(H  22,C   3,C   1,H  18)    177.3839         0.010339   
    114. D(H  22,C   3,C   1,C   2)     59.2771         0.010339   
    115. D(H  22,C   3,C   1,C   0)    -62.8322         0.010339   
    116. D(C   4,C   3,C   1,H  18)    -59.3015         0.010339   
    117. D(C   4,C   3,C   1,C   2)   -177.4083         0.010339   
    118. D(H  23,C   3,C   1,H  18)     62.0992         0.010339   
    119. D(C   4,C   3,C   1,C   0)     60.4824         0.010339   
    120. D(C   9,C   4,C   3,C   1)   -122.1861         0.011617   
    121. D(C   5,C   4,C   3,H  23)    -62.7518         0.011617   
    122. D(C   5,C   4,C   3,H  22)   -177.0905         0.011617   
    123. D(C   5,C   4,C   3,C   1)     59.7987         0.011617   
    124. D(C   9,C   4,C   3,H  23)    115.2633         0.011617   
    125. D(C   9,C   4,C   3,H  22)      0.9247         0.011617   
    126. D(H  24,C   5,C   4,C   9)   -179.6016         0.024880   
    127. D(H  24,C   5,C   4,C   3)     -1.5580         0.024880   
    128. D(C   6,C   5,C   4,C   9)     -1.4823         0.024880   
    129. D(C   6,C   5,C   4,C   3)    176.5613         0.024880   
    130. D(H  25,C   6,C   5,H  24)     -0.1532         0.025089   
    131. D(H  25,C   6,C   5,C   4)   -178.2966         0.025089   
    132. D(C   7,C   6,C   5,C   4)     -0.8450         0.025089   
    133. D(C   7,C   6,C   5,H  24)    177.2984         0.025089   
    134. D(C  10,C   7,C   6,H  25)      4.5584         0.024350   
    135. D(C  10,C   7,C   6,C   5)   -172.8350         0.024350   
    136. D(C   8,C   7,C   6,H  25)   -179.9113         0.024350   
    137. D(C   8,C   7,C   6,C   5)      2.6953         0.024350   
    138. D(H  26,C   8,C   7,C  10)     -4.6654         0.024307   
    139. D(H  26,C   8,C   7,C   6)    179.8780         0.024307   
    140. D(C   9,C   8,C   7,C  10)    173.1948         0.024307   
    141. D(C   9,C   8,C   7,C   6)     -2.2618         0.024307   
    142. D(H  27,C   9,C   8,H  26)     -0.2479         0.025297   
    143. D(H  27,C   9,C   8,C   7)   -178.1599         0.025297   
    144. D(C   4,C   9,C   8,H  26)    177.8781         0.025297   
    145. D(C   4,C   9,C   8,C   7)     -0.0339         0.025297   
    146. D(H  27,C   9,C   4,C   5)   -179.9821         0.025217   
    147. D(H  27,C   9,C   4,C   3)      1.9527         0.025217   
    148. D(C   8,C   9,C   4,C   5)      1.9169         0.025217   
    149. D(C   8,C   9,C   4,C   3)   -176.1482         0.025217   
    150. D(H  28,C  10,C   7,C   6)      0.8215         0.010724   
    151. D(C  12,C  10,C   7,C   8)     67.8217         0.010724   
    152. D(C  12,C  10,C   7,C   6)   -116.8041         0.010724   
    153. D(C  11,C  10,C   7,C   8)    -57.8548         0.010724   
    154. D(H  28,C  10,C   7,C   8)   -174.5527         0.010724   
    155. D(C  11,C  10,C   7,C   6)    117.5194         0.010724   
    156. D(H  31,C  11,C  10,H  28)    -61.4907         0.010812   
    157. D(H  31,C  11,C  10,C   7)   -178.1125         0.010812   
    158. D(H  30,C  11,C  10,H  28)     58.6706         0.010812   
    159. D(H  30,C  11,C  10,C  12)    171.6884         0.010812   
    160. D(H  30,C  11,C  10,C   7)    -57.9512         0.010812   
    161. D(H  29,C  11,C  10,H  28)    178.9284         0.010812   
    162. D(H  31,C  11,C  10,C  12)     51.5272         0.010812   
    163. D(H  29,C  11,C  10,C  12)    -68.0538         0.010812   
    164. D(H  29,C  11,C  10,C   7)     62.3065         0.010812   
    165. D(O  14,C  12,C  10,H  28)     65.9322         0.010688   
    166. D(O  14,C  12,C  10,C  11)    -49.0766         0.010688   
    167. D(O  14,C  12,C  10,C   7)   -174.8729         0.010688   
    168. D(O  13,C  12,C  10,H  28)   -112.5931         0.010688   
    169. D(O  13,C  12,C  10,C  11)    132.3981         0.010688   
    170. D(O  13,C  12,C  10,C   7)      6.6018         0.010688   
    171. D(H  32,O  13,C  12,O  14)   -177.6497         0.031247   
    172. D(H  32,O  13,C  12,C  10)      0.9099         0.031247   
    -----------------------------------------------------------------

Number of atoms                         .... 33
Number of degrees of freedom            .... 172

         *************************************************************
         *                GEOMETRY OPTIMIZATION CYCLE   1            *
         *************************************************************
---------------------------------
CARTESIAN COORDINATES (ANGSTROEM)
---------------------------------
  C      2.675690    1.765150    3.505570
  C      2.369440    0.527300    2.660060
  C      0.853040    0.352390    2.531840
  C      3.012800    0.619580    1.262930
  C      4.523080    0.732870    1.261520
  C      5.325880   -0.263850    1.830750
  C      6.721380   -0.183020    1.760210
  C      7.347760    0.887500    1.103400
  C      6.538770    1.903120    0.570060
  C      5.144550    1.826240    0.648810
  C      8.859350    0.876260    0.894160
  C      9.169890    0.867970   -0.608440
  C      9.678300    1.971180    1.572970
  O      9.020530    2.789260    2.420480
  O     10.882370    2.102660    1.393150
  H      2.204980    1.685590    4.490920
  H      2.304980    2.675540    3.023360
  H      3.751990    1.879740    3.667750
  H      2.760940   -0.351840    3.186200
  H      0.400840    1.179480    1.973450
  H      0.380240    0.314730    3.519180
  H      0.610400   -0.580070    2.011090
  H      2.581370    1.474690    0.724970
  H      2.745680   -0.267330    0.672430
  H      4.870920   -1.129100    2.308410
  H      7.309580   -0.991920    2.190260
  H      6.980780    2.754480    0.053610
  H      4.547730    2.614970    0.199000
  H      9.245090   -0.060910    1.319030
  H      8.795070    1.769900   -1.106040
  H      8.710910    0.001180   -1.097520
  H     10.247760    0.826250   -0.793960
  H      8.069260    2.590220    2.530770

----------------------------
CARTESIAN COORDINATES (A.U.)
----------------------------
  NO LB      ZA    FRAG     MASS         X           Y           Z
   0 C     6.0000    0    12.011    5.056321    3.335650    6.624567
   1 C     6.0000    0    12.011    4.477593    0.996453    5.026785
   2 C     6.0000    0    12.011    1.612012    0.665921    4.784484
   3 C     6.0000    0    12.011    5.693367    1.170837    2.386592
   4 C     6.0000    0    12.011    8.547382    1.384924    2.383927
   5 C     6.0000    0    12.011   10.064455   -0.498604    3.459616
   6 C     6.0000    0    12.011   12.701567   -0.345858    3.326315
   7 C     6.0000    0    12.011   13.885254    1.677132    2.085124
   8 C     6.0000    0    12.011   12.356485    3.596376    1.077257
   9 C     6.0000    0    12.011    9.721791    3.451093    1.226073
  10 C     6.0000    0    12.011   16.741745    1.655891    1.689718
  11 C     6.0000    0    12.011   17.328581    1.640226   -1.149785
  12 C     6.0000    0    12.011   18.289336    3.724990    2.972483
  13 O     8.0000    0    15.999   17.046331    5.270938    4.574044
  14 O     8.0000    0    15.999   20.564699    3.973452    2.632672
  15 H     1.0000    0     1.008    4.166808    3.185303    8.486609
  16 H     1.0000    0     1.008    4.355781    5.056038    5.713322
  17 H     1.0000    0     1.008    7.090234    3.552194    6.931043
  18 H     1.0000    0     1.008    5.217420   -0.664881    6.021045
  19 H     1.0000    0     1.008    0.757478    2.228894    3.729280
  20 H     1.0000    0     1.008    0.718549    0.594754    6.650286
  21 H     1.0000    0     1.008    1.153489   -1.096173    3.800409
  22 H     1.0000    0     1.008    4.878082    2.786760    1.369995
  23 H     1.0000    0     1.008    5.188583   -0.505180    1.270709
  24 H     1.0000    0     1.008    9.204705   -2.133690    4.362263
  25 H     1.0000    0     1.008   13.813104   -1.874457    4.138992
  26 H     1.0000    0     1.008   13.191762    5.205213    0.101308
  27 H     1.0000    0     1.008    8.593964    4.941577    0.376056
  28 H     1.0000    0     1.008   17.470688   -0.115103    2.492605
  29 H     1.0000    0     1.008   16.620274    3.344626   -2.090113
  30 H     1.0000    0     1.008   16.461234    0.002230   -2.074012
  31 H     1.0000    0     1.008   19.365460    1.561386   -1.500367
  32 H     1.0000    0     1.008   15.248692    4.894806    4.782462

--------------------------------
INTERNAL COORDINATES (ANGSTROEM)
--------------------------------
 C      0   0   0     0.000000000000     0.00000000     0.00000000
 C      1   0   0     1.530015962368     0.00000000     0.00000000
 C      2   1   0     1.531829898030   109.68085940     0.00000000
 C      2   1   3     1.540908798372   111.65577864   122.37099460
 C      4   2   1     1.514523783438   114.94030142    60.48235825
 C      5   4   2     1.400700321732   121.19344506    59.79873337
 C      6   5   4     1.399617672974   120.65574792   176.56130566
 C      7   6   5     1.403482935735   120.83901683   359.15499176
 C      8   7   6     1.403709499897   118.19490163     2.69527821
 C      9   8   7     1.398556936739   120.88847266   357.73815028
 C      8   7   6     1.526044574480   120.04137847   187.16499061
 C     11   8   7     1.534376282305   109.55942235   117.51938940
 C     11   8   7     1.526535923259   117.71936967   243.19588913
 O     13  11   8     1.349143972821   116.91724670     6.60175040
 O     13  11   8     1.224502669536   122.63179623   185.12706172
 H      1   2   3     1.094902881629   110.63921864    57.20535059
 H      1   2   3     1.094880057495   111.19615783   297.02290207
 H      1   2   3     1.094465582145   111.31118805   176.39042216
 H      2   1   3     1.096805675222   108.17668635   242.93534909
 H      3   2   1     1.095610377917   111.41019161    65.07450784
 H      3   2   1     1.095353089739   110.84063340   304.91966346
 H      3   2   1     1.095233483646   110.87452355   185.38542895
 H      4   2   1     1.098519876288   109.06622004   297.16776483
 H      4   2   1     1.098477442873   109.72593932   181.88307048
 H      6   5   4     1.088028142881   120.30730276   358.44202786
 H      7   6   5     1.088687950011   118.41637635   181.70340462
 H      9   8   7     1.089452748952   120.77669238   179.87797866
 H     10   9   8     1.086562543713   118.97034900   181.84012235
 H     11   8   7     1.098907399829   107.51564157     0.82148629
 H     12  11   8     1.096163088824   111.77089727    62.30652671
 H     12  11   8     1.095986674600   110.88669119   302.04875038
 H     12  11   8     1.094514488575   111.43873545   181.88746548
 H     14  13  11     0.978108081247   114.93617530     0.90990338

---------------------------
INTERNAL COORDINATES (A.U.)
---------------------------
 C      0   0   0     0.000000000000     0.00000000     0.00000000
 C      1   0   0     2.891311149403     0.00000000     0.00000000
 C      2   1   0     2.894738991030   109.68085940     0.00000000
 C      2   1   3     2.911895626273   111.65577864   122.37099460
 C      4   2   1     2.862035174008   114.94030142    60.48235825
 C      5   4   2     2.646940003769   121.19344506    59.79873337
 C      6   5   4     2.644894094116   120.65574792   176.56130566
 C      7   6   5     2.652198382171   120.83901683   359.15499176
 C      8   7   6     2.652626526388   118.19490163     2.69527821
 C      9   8   7     2.642889593132   120.88847266   357.73815028
 C      8   7   6     2.883806313924   120.04137847   187.16499061
 C     11   8   7     2.899550959941   109.55942235   117.51938940
 C     11   8   7     2.884734828552   117.71936967   243.19588913
 O     13  11   8     2.549512623863   116.91724670     6.60175040
 O     13  11   8     2.313974695678   122.63179623   185.12706172
 H      1   2   3     2.069066589520   110.63921864    57.20535059
 H      1   2   3     2.069023458157   111.19615783   297.02290207
 H      1   2   3     2.068240213257   111.31118805   176.39042216
 H      2   1   3     2.072662348301   108.17668635   242.93534909
 H      3   2   1     2.070403563746   111.41019161    65.07450784
 H      3   2   1     2.069917359551   110.84063340   304.91966346
 H      3   2   1     2.069691336792   110.87452355   185.38542895
 H      4   2   1     2.075901718854   109.06622004   297.16776483
 H      4   2   1     2.075821531319   109.72593932   181.88307048
 H      6   5   4     2.056075216043   120.30730276   358.44202786
 H      7   6   5     2.057322070822   118.41637635   181.70340462
 H      9   8   7     2.058767331368   120.77669238   179.87797866
 H     10   9   8     2.053305634994   118.97034900   181.84012235
 H     11   8   7     2.076634032217   107.51564157     0.82148629
 H     12  11   8     2.071448035990   111.77089727    62.30652671
 H     12  11   8     2.071114661420   110.88669119   302.04875038
 H     12  11   8     2.068332633015   111.43873545   181.88746548
 H     14  13  11     1.848356402931   114.93617530     0.90990338

---------------------
BASIS SET INFORMATION
---------------------
There are 3 groups of distinct atoms

 Group   1 Type C   : 12s6p1d contracted to 5s4p1d pattern {63111/3111/1}
 Group   2 Type O   : 12s6p1d contracted to 5s4p1d pattern {63111/3111/1}
 Group   3 Type H   : 5s1p contracted to 3s1p pattern {311/1}

Atom   0C    basis set group =>   1
Atom   1C    basis set group =>   1
Atom   2C    basis set group =>   1
Atom   3C    basis set group =>   1
Atom   4C    basis set group =>   1
Atom   5C    basis set group =>   1
Atom   6C    basis set group =>   1
Atom   7C    basis set group =>   1
Atom   8C    basis set group =>   1
Atom   9C    basis set group =>   1
Atom  10C    basis set group =>   1
Atom  11C    basis set group =>   1
Atom  12C    basis set group =>   1
Atom  13O    basis set group =>   2
Atom  14O    basis set group =>   2
Atom  15H    basis set group =>   3
Atom  16H    basis set group =>   3
Atom  17H    basis set group =>   3
Atom  18H    basis set group =>   3
Atom  19H    basis set group =>   3
Atom  20H    basis set group =>   3
Atom  21H    basis set group =>   3
Atom  22H    basis set group =>   3
Atom  23H    basis set group =>   3
Atom  24H    basis set group =>   3
Atom  25H    basis set group =>   3
Atom  26H    basis set group =>   3
Atom  27H    basis set group =>   3
Atom  28H    basis set group =>   3
Atom  29H    basis set group =>   3
Atom  30H    basis set group =>   3
Atom  31H    basis set group =>   3
Atom  32H    basis set group =>   3
---------------------------------
AUXILIARY/J BASIS SET INFORMATION
---------------------------------
There are 3 groups of distinct atoms

 Group   1 Type C   : 12s5p4d2f1g contracted to 6s4p3d1f1g pattern {711111/2111/211/2/1}
 Group   2 Type O   : 12s5p4d2f1g contracted to 6s4p3d1f1g pattern {711111/2111/211/2/1}
 Group   3 Type H   : 5s2p1d contracted to 3s1p1d pattern {311/2/1}

Atom   0C    basis set group =>   1
Atom   1C    basis set group =>   1
Atom   2C    basis set group =>   1
Atom   3C    basis set group =>   1
Atom   4C    basis set group =>   1
Atom   5C    basis set group =>   1
Atom   6C    basis set group =>   1
Atom   7C    basis set group =>   1
Atom   8C    basis set group =>   1
Atom   9C    basis set group =>   1
Atom  10C    basis set group =>   1
Atom  11C    basis set group =>   1
Atom  12C    basis set group =>   1
Atom  13O    basis set group =>   2
Atom  14O    basis set group =>   2
Atom  15H    basis set group =>   3
Atom  16H    basis set group =>   3
Atom  17H    basis set group =>   3
Atom  18H    basis set group =>   3
Atom  19H    basis set group =>   3
Atom  20H    basis set group =>   3
Atom  21H    basis set group =>   3
Atom  22H    basis set group =>   3
Atom  23H    basis set group =>   3
Atom  24H    basis set group =>   3
Atom  25H    basis set group =>   3
Atom  26H    basis set group =>   3
Atom  27H    basis set group =>   3
Atom  28H    basis set group =>   3
Atom  29H    basis set group =>   3
Atom  30H    basis set group =>   3
Atom  31H    basis set group =>   3
Atom  32H    basis set group =>   3
------------------------------------------------------------------------------
                           ORCA GTO INTEGRAL CALCULATION
                           -- RI-GTO INTEGRALS CHOSEN --
------------------------------------------------------------------------------
------------------------------------------------------------------------------
                   ___                                                        
                  /   \      - P O W E R E D   B Y -                         
                 /     \                                                     
                 |  |  |   _    _      __       _____    __    __             
                 |  |  |  | |  | |    /  \     |  _  \  |  |  /  |          
                  \  \/   | |  | |   /    \    | | | |  |  | /  /          
                 / \  \   | |__| |  /  /\  \   | |_| |  |  |/  /          
                |  |  |   |  __  | /  /__\  \  |    /   |      \           
                |  |  |   | |  | | |   __   |  |    \   |  |\   \          
                \     /   | |  | | |  |  |  |  | |\  \  |  | \   \       
                 \___/    |_|  |_| |__|  |__|  |_| \__\ |__|  \__/        
                                                                              
                      - O R C A' S   B I G   F R I E N D -                    
                                      &                                       
                       - I N T E G R A L  F E E D E R -                       
                                                                              
 v1 FN, 2020, v2 2021                                                         
------------------------------------------------------------------------------


Reading SHARK input file Ibuprofeno\Ibuprofeno_PBE_6-311+G\Ibuprofeno_PBE_6-311+G.orcainp.SHARKINP.tmp ... ok
----------------------
SHARK INTEGRAL PACKAGE
----------------------

Number of atoms                             ...     33
Number of basis functions                   ...    438
Number of shells                            ...    222
Maximum angular momentum                    ...      2
Integral batch strategy                     ... SHARK/LIBINT Hybrid
RI-J (if used) integral strategy            ... SPLIT-RIJ (Revised 2003 algorithm where possible)
Printlevel                                  ...      1
Contraction scheme used                     ... SEGMENTED contraction
Coulomb Range Separation                    ... NOT USED
Exchange Range Separation                   ... NOT USED
Finite Nucleus Model                        ... NOT USED
Auxiliary Coulomb fitting basis             ... AVAILABLE
   # of basis functions in Aux-J            ...    933
   # of shells in Aux-J                     ...    315
   Maximum angular momentum in Aux-J        ...      4
Auxiliary J/K fitting basis                 ... NOT available
Auxiliary Correlation fitting basis         ... NOT available
Auxiliary 'external' fitting basis          ... NOT available
Integral threshold                          ...     2.500000e-11
Primitive cut-off                           ...     2.500000e-12
Primitive pair pre-selection threshold      ...     2.500000e-12

Calculating pre-screening integrals         ... done (  0.0 sec) Dimension = 222
Organizing shell pair data                  ... done (  0.0 sec)
Shell pair information
Total number of shell pairs                 ...     24753
Shell pairs after pre-screening             ...     19582
Total number of primitive shell pairs       ...     77790
Primitive shell pairs kept                  ...     42565
          la=0 lb=0:   6529 shell pairs
          la=1 lb=0:   8055 shell pairs
          la=1 lb=1:   2538 shell pairs
          la=2 lb=0:   1458 shell pairs
          la=2 lb=1:    911 shell pairs
          la=2 lb=2:     91 shell pairs

Calculating one electron integrals          ... done (  0.0 sec)
Calculating RI/J V-Matrix + Cholesky decomp.... done (  0.0 sec)
Calculating Nuclear repulsion               ... done (  0.0 sec) ENN=    964.635694189365 Eh

SHARK setup successfully completed in   0.2 seconds

Maximum memory used throughout the entire GTOINT-calculation: 87.1 MB
-------------------------------------------------------------------------------
                                 ORCA SCF
-------------------------------------------------------------------------------

------------
SCF SETTINGS
------------
Hamiltonian:
 Density Functional     Method          .... DFT(GTOs)
 Exchange Functional    Exchange        .... PBE
   PBE kappa parameter   XKappa         ....  0.804000
   PBE mue parameter    XMuePBE         ....  0.219520
 Correlation Functional Correlation     .... PBE
   PBE beta parameter  CBetaPBE         ....  0.066725
 LDA part of GGA corr.  LDAOpt          .... PW91-LDA
 Gradients option       PostSCFGGA      .... off
   Density functional embedding theory  .... OFF
   NL short-range parameter             ....  6.400000
 RI-approximation to the Coulomb term is turned on
   Number of AuxJ basis functions       .... 933


General Settings:
 Integral files         IntName         .... Ibuprofeno\Ibuprofeno_PBE_6-311+G\Ibuprofeno_PBE_6-311+G.orcainp
 Hartree-Fock type      HFTyp           .... RHF
 Total Charge           Charge          ....    0
 Multiplicity           Mult            ....    1
 Number of Electrons    NEL             ....  112
 Basis Dimension        Dim             ....  438
 Nuclear Repulsion      ENuc            ....    964.6356941894 Eh

Convergence Acceleration:
 DIIS                   CNVDIIS         .... on
   Start iteration      DIISMaxIt       ....    12
   Startup error        DIISStart       ....  0.200000
   # of expansion vecs  DIISMaxEq       ....     5
   Bias factor          DIISBfac        ....   1.050
   Max. coefficient     DIISMaxC        ....  10.000
 Trust-Rad. Augm. Hess. CNVTRAH         .... auto
   Auto Start mean grad. ratio tolernc. ....  1.125000
   Auto Start start iteration           ....    20
   Auto Start num. interpolation iter.  ....    10
   Max. Number of Micro iterations      ....    16
   Max. Number of Macro iterations      .... Maxiter - #DIIS iter
   Number of Davidson start vectors     ....     2
   Converg. threshold I  (grad. norm)   ....   1.000e-05
   Converg. threshold II (energy diff.) ....   1.000e-08
   Grad. Scal. Fac. for Micro threshold ....   0.100
   Minimum threshold for Micro iter.    ....   0.010
   NR start threshold (gradient norm)   ....   0.001
   Initial trust radius                 ....   0.400
   Minimum AH scaling param. (alpha)    ....   1.000
   Maximum AH scaling param. (alpha)    .... 1000.000
   Orbital update algorithm             .... Taylor
   White noise on init. David. guess    .... on
   Maximum white noise                  ....   0.010
   Quad. conv. algorithm                .... NR
 SOSCF                  CNVSOSCF        .... on
   Start iteration      SOSCFMaxIt      ....   150
   Startup grad/error   SOSCFStart      ....  0.003300
 Level Shifting         CNVShift        .... on
   Level shift para.    LevelShift      ....    0.2500
   Turn off err/grad.   ShiftErr        ....    0.0010
 Zerner damping         CNVZerner       .... off
 Static damping         CNVDamp         .... on
   Fraction old density DampFac         ....    0.7000
   Max. Damping (<1)    DampMax         ....    0.9800
   Min. Damping (>=0)   DampMin         ....    0.0000
   Turn off err/grad.   DampErr         ....    0.1000
 Fernandez-Rico         CNVRico         .... off

SCF Procedure:
 Maximum # iterations   MaxIter         ....   125
 SCF integral mode      SCFMode         .... Direct
   Integral package                     .... SHARK and LIBINT hybrid scheme
 Reset frequency        DirectResetFreq ....    20
 Integral Threshold     Thresh          ....  2.500e-11 Eh
 Primitive CutOff       TCut            ....  2.500e-12 Eh

Convergence Tolerance:
 Convergence Check Mode ConvCheckMode   .... Total+1el-Energy
 Convergence forced     ConvForced      .... 0
 Energy Change          TolE            ....  1.000e-08 Eh
 1-El. energy change                    ....  1.000e-05 Eh
 Orbital Gradient       TolG            ....  1.000e-05
 Orbital Rotation angle TolX            ....  1.000e-05
 DIIS Error             TolErr          ....  5.000e-07


Diagonalization of the overlap matrix:
Smallest eigenvalue                        ... 7.832e-07
Time for diagonalization                   ...    0.010 sec
Threshold for overlap eigenvalues          ... 1.000e-08
Number of eigenvalues below threshold      ... 0
Time for construction of square roots      ...    0.007 sec
Total time needed                          ...    0.017 sec

Time for model grid setup =    0.329 sec

------------------------------
INITIAL GUESS: MODEL POTENTIAL
------------------------------
Loading Hartree-Fock densities                     ... done
Calculating cut-offs                               ... done
Initializing the effective Hamiltonian             ... done
Setting up the integral package (SHARK)            ... done
Starting the Coulomb interaction                   ... done (   0.5 sec)
Reading the grid                                   ... done
Mapping shells                                     ... done
Starting the XC term evaluation                    ... done (   0.5 sec)
  promolecular density results
     # of electrons  =    111.991585249
     EX              =    -88.092724668
     EC              =     -3.713063257
     EX+EC           =    -91.805787925
Transforming the Hamiltonian                       ... done (   0.0 sec)
Diagonalizing the Hamiltonian                      ... done (   0.0 sec)
Back transforming the eigenvectors                 ... done (   0.0 sec)
Now organizing SCF variables                       ... done
                      ------------------
                      INITIAL GUESS DONE (   1.3 sec)
                      ------------------
-------------------
DFT GRID GENERATION
-------------------

General Integration Accuracy     IntAcc      ... 4.388
Radial Grid Type                 RadialGrid  ... OptM3 with GC (2021)
Angular Grid (max. ang.)         AngularGrid ... 4 (Lebedev-302)
Angular grid pruning method      GridPruning ... 4 (adaptive)
Weight generation scheme         WeightScheme... Becke
Basis function cutoff            BFCut       ... 1.0000e-11
Integration weight cutoff        WCut        ... 1.0000e-14
Angular grids for H and He will be reduced by one unit
Partially contracted basis set               ... off
Rotationally invariant grid construction     ... off

Total number of grid points                  ...   150583
Total number of batches                      ...     2368
Average number of points per batch           ...       63
Average number of grid points per atom       ...     4563
Time for grid setup =    1.104 sec


--------------------
CPCM SOLVATION MODEL
--------------------
CPCM parameters:
  Epsilon                                         ...      80.4000
  Refrac                                          ...       1.3300
  Rsolv                                           ...       1.3000
  Surface type                                    ... GAUSSIAN VDW
  Epsilon function type                           ...         CPCM
Radii:
 Radius for C  used is    3.8550 Bohr (=   2.0400 Ang.)
 Radius for O  used is    3.4469 Bohr (=   1.8240 Ang.)
 Radius for H  used is    2.4944 Bohr (=   1.3200 Ang.)
Calculating surface                               ...        done! (  0.0s)
GEPOL surface points                              ...         1787
GEPOL Volume                                      ...    1843.8034
GEPOL Surface-area                                ...     987.4100
Calculating surface distance matrix               ...        done! (  0.0s)
Performing Cholesky decomposition & store         ...        done! (  0.0s)
Overall time for CPCM initialization              ...                 0.1s
--------------
SCF ITERATIONS
--------------
ITER       Energy         Delta-E        Max-DP      RMS-DP      [F,P]     Damp
               ***  Starting incremental Fock matrix formation  ***
  0   -655.6370850221   0.000000000000 3.23965752  0.01472965  0.2912457 0.7000
  1   -655.8458568874  -0.208771865295 1.20979784  0.00841840  0.0857273 0.7000
                               ***Turning on DIIS***
  2   -655.9139542845  -0.068097397121 1.46026971  0.01293865  0.0260891 0.0000
  3   -656.0232902438  -0.109335959297 0.97866787  0.00657319  0.0564106 0.0000
  4   -656.0522346743  -0.028944430433 0.67930402  0.00329872  0.0308197 0.0000
  5   -656.0551982735  -0.002963599198 0.08469110  0.00068349  0.0103535 0.0000
                      *** Initiating the SOSCF procedure ***
                           *** Shutting down DIIS ***
                      *** Re-Reading the Fockian *** 
                      *** Removing any level shift *** 
ITER      Energy       Delta-E        Grad      Rot      Max-DP    RMS-DP
  6   -656.05540976  -0.0002114911  0.000307  0.000307  0.058966  0.000472
               *** Restarting incremental Fock matrix formation ***
  7   -656.05542716  -0.0000173948  0.000167  0.000699  0.218394  0.001008
  8   -656.05542049   0.0000066719  0.000500  0.000689  0.041986  0.000243
  9   -656.05543067  -0.0000101859  0.000109  0.000293  0.126954  0.000805
 10   -656.05542945   0.0000012192  0.000164  0.000188  0.132257  0.000572
 11   -656.05543109  -0.0000016400  0.000032  0.000108  0.160434  0.000686
 12   -656.05543095   0.0000001413  0.000043  0.000088  0.032087  0.000215
 13   -656.05543115  -0.0000001959  0.000010  0.000049  0.094603  0.000503
 14   -656.05543112   0.0000000247  0.000022  0.000034  0.039095  0.000234
                  ***Gradient check signals convergence***
              ***Rediagonalizing the Fockian in SOSCF/NRSCF***

               *****************************************************
               *                     SUCCESS                       *
               *           SCF CONVERGED AFTER  15 CYCLES          *
               *****************************************************


----------------
TOTAL SCF ENERGY
----------------

Total Energy       :         -656.05543115 Eh          -17852.17587 eV

Components:
Nuclear Repulsion  :          964.63569419 Eh           26249.07172 eV
Electronic Energy  :        -1620.69112534 Eh          -44101.24758 eV
One Electron Energy:        -2803.45721958 Eh          -76285.94925 eV
Two Electron Energy:         1182.76609423 Eh           32184.70166 eV
CPCM Dielectric    :           -0.01973054 Eh              -0.53690 eV

Virial components:
Potential Energy   :        -1309.75622589 Eh          -35640.27882 eV
Kinetic Energy     :          653.70079474 Eh           17788.10295 eV
Virial Ratio       :            2.00360201


DFT components:
N(Alpha)           :       56.000046709232 electrons
N(Beta)            :       56.000046709232 electrons
N(Total)           :      112.000093418463 electrons
E(X)               :      -89.984077237826 Eh       
E(C)               :       -3.708365889830 Eh       
E(XC)              :      -93.692443127656 Eh       
DFET-embed. en.    :        0.000000000000 Eh       
CPCM Solvation Model Properties:
Surface-charge          :           -0.03823316
Charge-correction       :            0.00001855 Eh               0.00050 eV
Free-energy (cav+disp)  :  This term is not implemented in the current solvation scheme

---------------
SCF CONVERGENCE
---------------

  Last Energy change         ...   -2.9568e-08  Tolerance :   1.0000e-08
  Last MAX-Density change    ...    1.1107e-01  Tolerance :   1.0000e-07
  Last RMS-Density change    ...    6.7509e-04  Tolerance :   5.0000e-09
  Last Orbital Gradient      ...    2.2814e-06  Tolerance :   1.0000e-05
  Last Orbital Rotation      ...    4.1750e-06  Tolerance :   1.0000e-05

             **** THE GBW FILE WAS UPDATED (Ibuprofeno\Ibuprofeno_PBE_6-311+G\Ibuprofeno_PBE_6-311+G.orcainp.gbw) ****
             **** DENSITY Ibuprofeno\Ibuprofeno_PBE_6-311+G\Ibuprofeno_PBE_6-311+G.orcainp.scfp WAS UPDATED ****
             **** ENERGY FILE WAS UPDATED (Ibuprofeno\Ibuprofeno_PBE_6-311+G\Ibuprofeno_PBE_6-311+G.orcainp.en.tmp) ****
             **** THE GBW FILE WAS UPDATED (Ibuprofeno\Ibuprofeno_PBE_6-311+G\Ibuprofeno_PBE_6-311+G.orcainp.gbw) ****
             **** DENSITY Ibuprofeno\Ibuprofeno_PBE_6-311+G\Ibuprofeno_PBE_6-311+G.orcainp.scfp WAS UPDATED ****
----------------
ORBITAL ENERGIES
----------------

  NO   OCC          E(Eh)            E(eV) 
   0   2.0000     -18.800241      -511.5806 
   1   2.0000     -18.745093      -510.0799 
   2   2.0000     -10.019642      -272.6483 
   3   2.0000      -9.912408      -269.7303 
   4   2.0000      -9.902338      -269.4563 
   5   2.0000      -9.895360      -269.2664 
   6   2.0000      -9.890237      -269.1270 
   7   2.0000      -9.889980      -269.1200 
   8   2.0000      -9.885869      -269.0082 
   9   2.0000      -9.885729      -269.0044 
  10   2.0000      -9.882923      -268.9280 
  11   2.0000      -9.876729      -268.7595 
  12   2.0000      -9.875857      -268.7357 
  13   2.0000      -9.860820      -268.3265 
  14   2.0000      -9.859720      -268.2966 
  15   2.0000      -1.020667       -27.7737 
  16   2.0000      -0.942111       -25.6362 
  17   2.0000      -0.792925       -21.5766 
  18   2.0000      -0.747091       -20.3294 
  19   2.0000      -0.723288       -19.6817 
  20   2.0000      -0.680204       -18.5093 
  21   2.0000      -0.674707       -18.3597 
  22   2.0000      -0.614470       -16.7206 
  23   2.0000      -0.610610       -16.6156 
  24   2.0000      -0.597131       -16.2487 
  25   2.0000      -0.566726       -15.4214 
  26   2.0000      -0.553981       -15.0746 
  27   2.0000      -0.530819       -14.4443 
  28   2.0000      -0.499139       -13.5823 
  29   2.0000      -0.478174       -13.0118 
  30   2.0000      -0.449249       -12.2247 
  31   2.0000      -0.428516       -11.6605 
  32   2.0000      -0.415817       -11.3150 
  33   2.0000      -0.409539       -11.1441 
  34   2.0000      -0.403547       -10.9811 
  35   2.0000      -0.401292       -10.9197 
  36   2.0000      -0.387249       -10.5376 
  37   2.0000      -0.383523       -10.4362 
  38   2.0000      -0.373896       -10.1742 
  39   2.0000      -0.363856        -9.9010 
  40   2.0000      -0.357806        -9.7364 
  41   2.0000      -0.344460        -9.3732 
  42   2.0000      -0.334586        -9.1045 
  43   2.0000      -0.328828        -8.9479 
  44   2.0000      -0.324471        -8.8293 
  45   2.0000      -0.320808        -8.7296 
  46   2.0000      -0.312179        -8.4948 
  47   2.0000      -0.301882        -8.2146 
  48   2.0000      -0.297829        -8.1043 
  49   2.0000      -0.290252        -7.8982 
  50   2.0000      -0.288164        -7.8413 
  51   2.0000      -0.281033        -7.6473 
  52   2.0000      -0.275617        -7.4999 
  53   2.0000      -0.249968        -6.8020 
  54   2.0000      -0.235414        -6.4059 
  55   2.0000      -0.218810        -5.9541 
  56   0.0000      -0.054019        -1.4699 
  57   0.0000      -0.050125        -1.3640 
  58   0.0000      -0.045069        -1.2264 
  59   0.0000      -0.013744        -0.3740 
  60   0.0000       0.000682         0.0186 
  61   0.0000       0.007959         0.2166 
  62   0.0000       0.011257         0.3063 
  63   0.0000       0.017191         0.4678 
  64   0.0000       0.023034         0.6268 
  65   0.0000       0.024398         0.6639 
  66   0.0000       0.026549         0.7224 
  67   0.0000       0.036710         0.9989 
  68   0.0000       0.047223         1.2850 
  69   0.0000       0.049583         1.3492 
  70   0.0000       0.050874         1.3844 
  71   0.0000       0.055012         1.4970 
  72   0.0000       0.059532         1.6199 
  73   0.0000       0.063721         1.7339 
  74   0.0000       0.066712         1.8153 
  75   0.0000       0.070496         1.9183 
  76   0.0000       0.078247         2.1292 
  77   0.0000       0.083858         2.2819 
  78   0.0000       0.087539         2.3821 
  79   0.0000       0.089302         2.4300 
  80   0.0000       0.092613         2.5201 
  81   0.0000       0.094003         2.5580 
  82   0.0000       0.095411         2.5963 
  83   0.0000       0.100902         2.7457 
  84   0.0000       0.104134         2.8336 
  85   0.0000       0.108734         2.9588 
  86   0.0000       0.114041         3.1032 
  87   0.0000       0.119363         3.2480 
  88   0.0000       0.122133         3.3234 
  89   0.0000       0.126845         3.4516 
  90   0.0000       0.130635         3.5547 
  91   0.0000       0.132992         3.6189 
  92   0.0000       0.136366         3.7107 
  93   0.0000       0.147686         4.0187 
  94   0.0000       0.150099         4.0844 
  95   0.0000       0.156029         4.2458 
  96   0.0000       0.158765         4.3202 
  97   0.0000       0.162680         4.4267 
  98   0.0000       0.165702         4.5090 
  99   0.0000       0.169477         4.6117 
 100   0.0000       0.173317         4.7162 
 101   0.0000       0.180655         4.9159 
 102   0.0000       0.181300         4.9334 
 103   0.0000       0.186182         5.0663 
 104   0.0000       0.188091         5.1182 
 105   0.0000       0.189844         5.1659 
 106   0.0000       0.194031         5.2799 
 107   0.0000       0.195648         5.3239 
 108   0.0000       0.198604         5.4043 
 109   0.0000       0.202691         5.5155 
 110   0.0000       0.204261         5.5582 
 111   0.0000       0.207230         5.6390 
 112   0.0000       0.209740         5.7073 
 113   0.0000       0.214608         5.8398 
 114   0.0000       0.220364         5.9964 
 115   0.0000       0.221843         6.0366 
 116   0.0000       0.227287         6.1848 
 117   0.0000       0.229929         6.2567 
 118   0.0000       0.236753         6.4424 
 119   0.0000       0.239653         6.5213 
 120   0.0000       0.241074         6.5600 
 121   0.0000       0.247117         6.7244 
 122   0.0000       0.247301         6.7294 
 123   0.0000       0.251869         6.8537 
 124   0.0000       0.253405         6.8955 
 125   0.0000       0.257433         7.0051 
 126   0.0000       0.263946         7.1823 
 127   0.0000       0.267487         7.2787 
 128   0.0000       0.269976         7.3464 
 129   0.0000       0.271158         7.3786 
 130   0.0000       0.275980         7.5098 
 131   0.0000       0.281653         7.6642 
 132   0.0000       0.283216         7.7067 
 133   0.0000       0.287352         7.8193 
 134   0.0000       0.288494         7.8503 
 135   0.0000       0.298116         8.1121 
 136   0.0000       0.308768         8.4020 
 137   0.0000       0.312649         8.5076 
 138   0.0000       0.316191         8.6040 
 139   0.0000       0.321693         8.7537 
 140   0.0000       0.325075         8.8457 
 141   0.0000       0.333635         9.0787 
 142   0.0000       0.339741         9.2448 
 143   0.0000       0.347784         9.4637 
 144   0.0000       0.352872         9.6021 
 145   0.0000       0.357762         9.7352 
 146   0.0000       0.360367         9.8061 
 147   0.0000       0.370468        10.0809 
 148   0.0000       0.390858        10.6358 
 149   0.0000       0.393582        10.7099 
 150   0.0000       0.408810        11.1243 
 151   0.0000       0.423394        11.5211 
 152   0.0000       0.429105        11.6765 
 153   0.0000       0.432159        11.7596 
 154   0.0000       0.445531        12.1235 
 155   0.0000       0.459705        12.5092 
 156   0.0000       0.471470        12.8293 
 157   0.0000       0.476030        12.9534 
 158   0.0000       0.478958        13.0331 
 159   0.0000       0.494259        13.4495 
 160   0.0000       0.499980        13.6052 
 161   0.0000       0.501058        13.6345 
 162   0.0000       0.505969        13.7681 
 163   0.0000       0.519599        14.1390 
 164   0.0000       0.526827        14.3357 
 165   0.0000       0.540804        14.7160 
 166   0.0000       0.545714        14.8496 
 167   0.0000       0.553790        15.0694 
 168   0.0000       0.558459        15.1965 
 169   0.0000       0.560365        15.2483 
 170   0.0000       0.563369        15.3300 
 171   0.0000       0.578595        15.7444 
 172   0.0000       0.584442        15.9035 
 173   0.0000       0.590994        16.0818 
 174   0.0000       0.595184        16.1958 
 175   0.0000       0.604919        16.4607 
 176   0.0000       0.607800        16.5391 
 177   0.0000       0.618842        16.8395 
 178   0.0000       0.621488        16.9116 
 179   0.0000       0.633129        17.2283 
 180   0.0000       0.635830        17.3018 
 181   0.0000       0.643200        17.5024 
 182   0.0000       0.647030        17.6066 
 183   0.0000       0.651513        17.7286 
 184   0.0000       0.653551        17.7840 
 185   0.0000       0.664020        18.0689 
 186   0.0000       0.667304        18.1583 
 187   0.0000       0.670733        18.2516 
 188   0.0000       0.671980        18.2855 
 189   0.0000       0.676768        18.4158 
 190   0.0000       0.682423        18.5697 
 191   0.0000       0.692896        18.8547 
 192   0.0000       0.698173        18.9983 
 193   0.0000       0.702475        19.1153 
 194   0.0000       0.711544        19.3621 
 195   0.0000       0.716711        19.5027 
 196   0.0000       0.724660        19.7190 
 197   0.0000       0.726509        19.7693 
 198   0.0000       0.735072        20.0023 
 199   0.0000       0.737862        20.0782 
 200   0.0000       0.749061        20.3830 
 201   0.0000       0.756580        20.5876 
 202   0.0000       0.767674        20.8895 
 203   0.0000       0.778718        21.1900 
 204   0.0000       0.785119        21.3642 
 205   0.0000       0.820464        22.3260 
 206   0.0000       0.825957        22.4754 
 207   0.0000       0.837599        22.7922 
 208   0.0000       0.839347        22.8398 
 209   0.0000       0.860797        23.4235 
 210   0.0000       0.879152        23.9229 
 211   0.0000       0.893945        24.3255 
 212   0.0000       0.900334        24.4993 
 213   0.0000       0.923326        25.1250 
 214   0.0000       0.927431        25.2367 
 215   0.0000       0.955722        26.0065 
 216   0.0000       0.969381        26.3782 
 217   0.0000       0.974029        26.5047 
 218   0.0000       0.983587        26.7648 
 219   0.0000       0.994495        27.0616 
 220   0.0000       1.010518        27.4976 
 221   0.0000       1.014855        27.6156 
 222   0.0000       1.030762        28.0485 
 223   0.0000       1.033973        28.1358 
 224   0.0000       1.046925        28.4883 
 225   0.0000       1.065846        29.0031 
 226   0.0000       1.076322        29.2882 
 227   0.0000       1.088724        29.6257 
 228   0.0000       1.090164        29.6649 
 229   0.0000       1.113747        30.3066 
 230   0.0000       1.120864        30.5002 
 231   0.0000       1.141863        31.0717 
 232   0.0000       1.148263        31.2458 
 233   0.0000       1.163305        31.6551 
 234   0.0000       1.166920        31.7535 
 235   0.0000       1.183735        32.2111 
 236   0.0000       1.196984        32.5716 
 237   0.0000       1.215970        33.0882 
 238   0.0000       1.235218        33.6120 
 239   0.0000       1.249822        34.0094 
 240   0.0000       1.280201        34.8360 
 241   0.0000       1.290138        35.1065 
 242   0.0000       1.318670        35.8828 
 243   0.0000       1.342687        36.5364 
 244   0.0000       1.369038        37.2534 
 245   0.0000       1.401632        38.1404 
 246   0.0000       1.406366        38.2692 
 247   0.0000       1.410755        38.3886 
 248   0.0000       1.416680        38.5498 
 249   0.0000       1.427047        38.8319 
 250   0.0000       1.435641        39.0658 
 251   0.0000       1.446690        39.3664 
 252   0.0000       1.451636        39.5010 
 253   0.0000       1.460054        39.7301 
 254   0.0000       1.471508        40.0418 
 255   0.0000       1.476974        40.1905 
 256   0.0000       1.485549        40.4238 
 257   0.0000       1.490335        40.5541 
 258   0.0000       1.497232        40.7418 
 259   0.0000       1.502377        40.8818 
 260   0.0000       1.507672        41.0258 
 261   0.0000       1.519506        41.3479 
 262   0.0000       1.528847        41.6021 
 263   0.0000       1.544154        42.0186 
 264   0.0000       1.545499        42.0552 
 265   0.0000       1.552736        42.2521 
 266   0.0000       1.557637        42.3855 
 267   0.0000       1.563723        42.5511 
 268   0.0000       1.584952        43.1287 
 269   0.0000       1.589409        43.2500 
 270   0.0000       1.595249        43.4089 
 271   0.0000       1.607427        43.7403 
 272   0.0000       1.620246        44.0891 
 273   0.0000       1.624363        44.2012 
 274   0.0000       1.641651        44.6716 
 275   0.0000       1.648504        44.8581 
 276   0.0000       1.661893        45.2224 
 277   0.0000       1.667550        45.3763 
 278   0.0000       1.672414        45.5087 
 279   0.0000       1.682470        45.7823 
 280   0.0000       1.693232        46.0752 
 281   0.0000       1.713959        46.6392 
 282   0.0000       1.719590        46.7924 
 283   0.0000       1.727541        47.0088 
 284   0.0000       1.740102        47.3506 
 285   0.0000       1.746150        47.5151 
 286   0.0000       1.748529        47.5799 
 287   0.0000       1.758672        47.8559 
 288   0.0000       1.765458        48.0406 
 289   0.0000       1.788609        48.6705 
 290   0.0000       1.795003        48.8445 
 291   0.0000       1.820941        49.5503 
 292   0.0000       1.828116        49.7456 
 293   0.0000       1.844819        50.2001 
 294   0.0000       1.854667        50.4681 
 295   0.0000       1.867531        50.8181 
 296   0.0000       1.888794        51.3967 
 297   0.0000       1.893300        51.5193 
 298   0.0000       1.909135        51.9502 
 299   0.0000       1.930753        52.5385 
 300   0.0000       1.935574        52.6697 
 301   0.0000       1.948534        53.0223 
 302   0.0000       1.962158        53.3930 
 303   0.0000       1.985765        54.0354 
 304   0.0000       2.002394        54.4879 
 305   0.0000       2.009397        54.6785 
 306   0.0000       2.022942        55.0470 
 307   0.0000       2.031851        55.2895 
 308   0.0000       2.054926        55.9174 
 309   0.0000       2.069176        56.3051 
 310   0.0000       2.075558        56.4788 
 311   0.0000       2.090367        56.8818 
 312   0.0000       2.107396        57.3452 
 313   0.0000       2.124728        57.8168 
 314   0.0000       2.132498        58.0282 
 315   0.0000       2.143135        58.3177 
 316   0.0000       2.169495        59.0350 
 317   0.0000       2.175984        59.2115 
 318   0.0000       2.226763        60.5933 
 319   0.0000       2.253212        61.3130 
 320   0.0000       2.260477        61.5107 
 321   0.0000       2.288631        62.2768 
 322   0.0000       2.297016        62.5050 
 323   0.0000       2.313560        62.9552 
 324   0.0000       2.326485        63.3069 
 325   0.0000       2.329752        63.3958 
 326   0.0000       2.345808        63.8327 
 327   0.0000       2.347052        63.8665 
 328   0.0000       2.367494        64.4228 
 329   0.0000       2.390788        65.0566 
 330   0.0000       2.417134        65.7736 
 331   0.0000       2.422936        65.9314 
 332   0.0000       2.429962        66.1226 
 333   0.0000       2.459533        66.9273 
 334   0.0000       2.466080        67.1054 
 335   0.0000       2.471098        67.2420 
 336   0.0000       2.485565        67.6357 
 337   0.0000       2.496458        67.9321 
 338   0.0000       2.498878        67.9979 
 339   0.0000       2.521971        68.6263 
 340   0.0000       2.530860        68.8682 
 341   0.0000       2.546778        69.3014 
 342   0.0000       2.555506        69.5389 
 343   0.0000       2.559923        69.6591 
 344   0.0000       2.571877        69.9843 
 345   0.0000       2.584918        70.3392 
 346   0.0000       2.618358        71.2492 
 347   0.0000       2.625683        71.4485 
 348   0.0000       2.630374        71.5761 
 349   0.0000       2.641373        71.8754 
 350   0.0000       2.650326        72.1190 
 351   0.0000       2.656467        72.2861 
 352   0.0000       2.666347        72.5550 
 353   0.0000       2.690835        73.2213 
 354   0.0000       2.695996        73.3618 
 355   0.0000       2.702514        73.5391 
 356   0.0000       2.713085        73.8268 
 357   0.0000       2.727791        74.2270 
 358   0.0000       2.739182        74.5369 
 359   0.0000       2.751998        74.8857 
 360   0.0000       2.762212        75.1636 
 361   0.0000       2.769506        75.3621 
 362   0.0000       2.777169        75.5706 
 363   0.0000       2.802457        76.2587 
 364   0.0000       2.803290        76.2814 
 365   0.0000       2.815558        76.6152 
 366   0.0000       2.819877        76.7328 
 367   0.0000       2.827313        76.9351 
 368   0.0000       2.844302        77.3974 
 369   0.0000       2.861225        77.8579 
 370   0.0000       2.881301        78.4042 
 371   0.0000       2.883498        78.4640 
 372   0.0000       2.899918        78.9108 
 373   0.0000       2.906008        79.0765 
 374   0.0000       2.914163        79.2984 
 375   0.0000       2.960425        80.5573 
 376   0.0000       2.978864        81.0590 
 377   0.0000       3.029090        82.4257 
 378   0.0000       3.041073        82.7518 
 379   0.0000       3.067841        83.4802 
 380   0.0000       3.076578        83.7180 
 381   0.0000       3.107635        84.5630 
 382   0.0000       3.139862        85.4400 
 383   0.0000       3.168959        86.2317 
 384   0.0000       3.192639        86.8761 
 385   0.0000       3.227114        87.8142 
 386   0.0000       3.248967        88.4089 
 387   0.0000       3.290802        89.5473 
 388   0.0000       3.330439        90.6259 
 389   0.0000       3.366036        91.5945 
 390   0.0000       3.400873        92.5425 
 391   0.0000       3.413704        92.8916 
 392   0.0000       3.427953        93.2793 
 393   0.0000       3.504581        95.3645 
 394   0.0000       3.555131        96.7400 
 395   0.0000       3.579948        97.4154 
 396   0.0000       3.652360        99.3858 
 397   0.0000       3.708925       100.9250 
 398   0.0000       3.714592       101.0792 
 399   0.0000       3.722745       101.3010 
 400   0.0000       3.725958       101.3885 
 401   0.0000       3.734746       101.6276 
 402   0.0000       3.753656       102.1422 
 403   0.0000       3.788995       103.1038 
 404   0.0000       3.793565       103.2282 
 405   0.0000       3.900812       106.1465 
 406   0.0000       3.941765       107.2609 
 407   0.0000       3.960979       107.7837 
 408   0.0000       3.968654       107.9926 
 409   0.0000       4.067430       110.6804 
 410   0.0000       4.085838       111.1813 
 411   0.0000       4.148148       112.8768 
 412   0.0000       4.160172       113.2040 
 413   0.0000       4.213209       114.6473 
 414   0.0000       4.257413       115.8501 
 415   0.0000       4.344895       118.2306 
 416   0.0000       4.753901       129.3602 
 417   0.0000       4.875743       132.6757 
 418   0.0000       4.943358       134.5156 
 419   0.0000       5.031448       136.9127 
 420   0.0000       5.233067       142.3990 
 421   0.0000       5.453124       148.3870 
 422   0.0000       5.746314       156.3652 
 423   0.0000      23.360364       635.6678 
 424   0.0000      23.535618       640.4367 
 425   0.0000      23.585873       641.8042 
 426   0.0000      23.595660       642.0706 
 427   0.0000      23.670148       644.0975 
 428   0.0000      23.699425       644.8941 
 429   0.0000      23.713407       645.2746 
 430   0.0000      23.722747       645.5288 
 431   0.0000      23.733222       645.8138 
 432   0.0000      23.743792       646.1014 
 433   0.0000      23.813383       647.9951 
 434   0.0000      23.835974       648.6098 
 435   0.0000      23.918843       650.8648 
 436   0.0000      49.472007      1346.2018 
 437   0.0000      49.613159      1350.0427 

                    ********************************
                    * MULLIKEN POPULATION ANALYSIS *
                    ********************************

-----------------------
MULLIKEN ATOMIC CHARGES
-----------------------
   0 C :   -0.756418
   1 C :    0.640849
   2 C :   -0.864339
   3 C :   -1.464529
   4 C :    2.069177
   5 C :   -0.738216
   6 C :   -0.820158
   7 C :    1.107922
   8 C :   -0.760714
   9 C :   -0.521829
  10 C :    0.007487
  11 C :   -0.635072
  12 C :   -0.073681
  13 O :   -0.199346
  14 O :   -0.323695
  15 H :    0.168272
  16 H :    0.175232
  17 H :    0.171513
  18 H :    0.166083
  19 H :    0.172051
  20 H :    0.167572
  21 H :    0.169672
  22 H :    0.179002
  23 H :    0.194493
  24 H :    0.158872
  25 H :    0.161494
  26 H :    0.176381
  27 H :    0.158363
  28 H :    0.222215
  29 H :    0.185541
  30 H :    0.185870
  31 H :    0.185730
  32 H :    0.334204
Sum of atomic charges:   -0.0000000

--------------------------------
MULLIKEN REDUCED ORBITAL CHARGES
--------------------------------
  0 C s       :     3.558930  s :     3.558930
      pz      :     1.064318  p :     3.156052
      px      :     1.110875
      py      :     0.980860
      dz2     :     0.009736  d :     0.041436
      dxz     :     0.006139
      dyz     :     0.008179
      dx2y2   :     0.011890
      dxy     :     0.005491
  1 C s       :     2.577261  s :     2.577261
      pz      :     0.921928  p :     2.712031
      px      :     0.843670
      py      :     0.946433
      dz2     :     0.013135  d :     0.069859
      dxz     :     0.013786
      dyz     :     0.016021
      dx2y2   :     0.014937
      dxy     :     0.011979
  2 C s       :     3.658010  s :     3.658010
      pz      :     1.111570  p :     3.164936
      px      :     0.961753
      py      :     1.091614
      dz2     :     0.005851  d :     0.041393
      dxz     :     0.010254
      dyz     :     0.007698
      dx2y2   :     0.009010
      dxy     :     0.008581
  3 C s       :     4.382810  s :     4.382810
      pz      :     1.045977  p :     3.027116
      px      :     0.815784
      py      :     1.165355
      dz2     :     0.008492  d :     0.054603
      dxz     :     0.011609
      dyz     :     0.013928
      dx2y2   :     0.012366
      dxy     :     0.008208
  4 C s       :     1.817765  s :     1.817765
      pz      :     0.628245  p :     2.042958
      px      :     0.590088
      py      :     0.824625
      dz2     :     0.008197  d :     0.070100
      dxz     :     0.012674
      dyz     :     0.009105
      dx2y2   :     0.019848
      dxy     :     0.020276
  5 C s       :     3.468859  s :     3.468859
      pz      :     0.930171  p :     3.215572
      px      :     1.179584
      py      :     1.105816
      dz2     :     0.004822  d :     0.053785
      dxz     :     0.011373
      dyz     :     0.006117
      dx2y2   :     0.014889
      dxy     :     0.016583
  6 C s       :     3.651337  s :     3.651337
      pz      :     1.080119  p :     3.114390
      px      :     1.090501
      py      :     0.943769
      dz2     :     0.005480  d :     0.054431
      dxz     :     0.011625
      dyz     :     0.006168
      dx2y2   :     0.013384
      dxy     :     0.017773
  7 C s       :     2.453820  s :     2.453820
      pz      :     0.978083  p :     2.369612
      px      :     0.697023
      py      :     0.694505
      dz2     :     0.009022  d :     0.068646
      dxz     :     0.011934
      dyz     :     0.009284
      dx2y2   :     0.020132
      dxy     :     0.018275
  8 C s       :     3.536626  s :     3.536626
      pz      :     1.002336  p :     3.169729
      px      :     1.206343
      py      :     0.961051
      dz2     :     0.004704  d :     0.054359
      dxz     :     0.011922
      dyz     :     0.006268
      dx2y2   :     0.014584
      dxy     :     0.016882
  9 C s       :     3.471315  s :     3.471315
      pz      :     0.944976  p :     2.996078
      px      :     0.970450
      py      :     1.080652
      dz2     :     0.005174  d :     0.054436
      dxz     :     0.011145
      dyz     :     0.006221
      dx2y2   :     0.013987
      dxy     :     0.017909
 10 C s       :     3.067820  s :     3.067820
      pz      :     0.815870  p :     2.859493
      px      :     0.968293
      py      :     1.075330
      dz2     :     0.012089  d :     0.065200
      dxz     :     0.015050
      dyz     :     0.013438
      dx2y2   :     0.011456
      dxy     :     0.013167
[...]
      pz      :     0.006563  p :     0.020348
      px      :     0.005893
      py      :     0.007893
 19 H s       :     0.804248  s :     0.804248
      pz      :     0.007299  p :     0.022034
      px      :     0.006420
      py      :     0.008315
 20 H s       :     0.807285  s :     0.807285
      pz      :     0.011087  p :     0.022312
      px      :     0.005848
      py      :     0.005377
 21 H s       :     0.808440  s :     0.808440
      pz      :     0.006354  p :     0.022353
      px      :     0.005181
      py      :     0.010818
 22 H s       :     0.797894  s :     0.797894
      pz      :     0.006827  p :     0.021342
      px      :     0.005960
      py      :     0.008555
 23 H s       :     0.792808  s :     0.792808
      pz      :     0.005839  p :     0.021751
      px      :     0.005374
      py      :     0.010538
 24 H s       :     0.816922  s :     0.816922
      pz      :     0.007188  p :     0.024557
      px      :     0.006158
      py      :     0.011210
 25 H s       :     0.812267  s :     0.812267
      pz      :     0.006723  p :     0.024690
      px      :     0.007599
      py      :     0.010368
 26 H s       :     0.805250  s :     0.805250
      pz      :     0.007339  p :     0.024778
      px      :     0.006146
      py      :     0.011292
 27 H s       :     0.817572  s :     0.817572
      pz      :     0.006784  p :     0.024613
      px      :     0.007599
      py      :     0.010230
 28 H s       :     0.744470  s :     0.744470
      pz      :     0.005716  p :     0.021705
      px      :     0.005598
      py      :     0.010391
 29 H s       :     0.780441  s :     0.780441
      pz      :     0.006252  p :     0.022298
      px      :     0.006033
      py      :     0.010014
 30 H s       :     0.794333  s :     0.794333
      pz      :     0.006764  p :     0.022322
      px      :     0.005934
      py      :     0.009624
 31 H s       :     0.792429  s :     0.792429
      pz      :     0.004760  p :     0.022573
      px      :     0.012362
      py      :     0.005451
 32 H s       :     0.607312  s :     0.607312
      pz      :     0.015489  p :     0.064076
      px      :     0.026328
      py      :     0.022258


                     *******************************
                     * LOEWDIN POPULATION ANALYSIS *
                     *******************************

----------------------
LOEWDIN ATOMIC CHARGES
----------------------
   0 C :   -0.142778
   1 C :   -0.178883
   2 C :   -0.146504
   3 C :   -0.124229
   4 C :   -0.117126
   5 C :   -0.067799
   6 C :   -0.064796
   7 C :   -0.140871
   8 C :   -0.062453
   9 C :   -0.069905
  10 C :   -0.131829
  11 C :   -0.101814
  12 C :   -0.023215
  13 O :   -0.046396
  14 O :   -0.206181
  15 H :    0.068486
  16 H :    0.077880
  17 H :    0.075977
  18 H :    0.084687
  19 H :    0.073924
  20 H :    0.067779
  21 H :    0.068132
  22 H :    0.095870
  23 H :    0.094652
  24 H :    0.097784
  25 H :    0.098202
  26 H :    0.103591
  27 H :    0.096836
  28 H :    0.125044
  29 H :    0.084471
  30 H :    0.080550
  31 H :    0.077856
  32 H :    0.153057

-------------------------------
LOEWDIN REDUCED ORBITAL CHARGES
-------------------------------
  0 C s       :     2.807479  s :     2.807479
      pz      :     1.089189  p :     3.243977
      px      :     1.088433
      py      :     1.066355
      dz2     :     0.021525  d :     0.091322
      dxz     :     0.008578
      dyz     :     0.020310
      dx2y2   :     0.024574
      dxy     :     0.016335
  1 C s       :     2.809230  s :     2.809230
      pz      :     1.061240  p :     3.214861
      px      :     1.073936
      py      :     1.079685
      dz2     :     0.031866  d :     0.154791
      dxz     :     0.028089
      dyz     :     0.032838
      dx2y2   :     0.034881
      dxy     :     0.027117
  2 C s       :     2.814049  s :     2.814049
      pz      :     1.093641  p :     3.240975
      px      :     1.056539
      py      :     1.090795
      dz2     :     0.016846  d :     0.091480
      dxz     :     0.020326
      dyz     :     0.012210
      dx2y2   :     0.022978
      dxy     :     0.019120
  3 C s       :     2.792514  s :     2.792514
      pz      :     1.069686  p :     3.209062
      px      :     1.050079
      py      :     1.089297
      dz2     :     0.024736  d :     0.122653
      dxz     :     0.026798
      dyz     :     0.023683
      dx2y2   :     0.028987
      dxy     :     0.018449
  4 C s       :     2.793384  s :     2.793384
      pz      :     0.965218  p :     3.161992
      px      :     1.094084
      py      :     1.102690
      dz2     :     0.015389  d :     0.161750
      dxz     :     0.025381
      dyz     :     0.021563
      dx2y2   :     0.049171
      dxy     :     0.050245
  5 C s       :     2.792902  s :     2.792902
      pz      :     0.984304  p :     3.147082
      px      :     1.105914
      py      :     1.056865
      dz2     :     0.009597  d :     0.127815
      dxz     :     0.023041
      dyz     :     0.012016
      dx2y2   :     0.040634
      dxy     :     0.042527
  6 C s       :     2.793719  s :     2.793719
      pz      :     0.983358  p :     3.141295
      px      :     1.103012
      py      :     1.054925
      dz2     :     0.010901  d :     0.129781
      dxz     :     0.022902
      dyz     :     0.013320
      dx2y2   :     0.037282
      dxy     :     0.045375
  7 C s       :     2.790129  s :     2.790129
      pz      :     1.007679  p :     3.189103
      px      :     1.068870
      py      :     1.112554
      dz2     :     0.016657  d :     0.161638
      dxz     :     0.023193
      dyz     :     0.022338
      dx2y2   :     0.051088
      dxy     :     0.048363
  8 C s       :     2.788889  s :     2.788889
      pz      :     0.981905  p :     3.144712
      px      :     1.109347
      py      :     1.053460
      dz2     :     0.009760  d :     0.128852
      dxz     :     0.024163
      dyz     :     0.012317
      dx2y2   :     0.039463
      dxy     :     0.043149
  9 C s       :     2.794573  s :     2.794573
      pz      :     0.989261  p :     3.146833
      px      :     1.101577
      py      :     1.055996
      dz2     :     0.010567  d :     0.128499
      dxz     :     0.022367
      dyz     :     0.012973
      dx2y2   :     0.037834
      dxy     :     0.044758
 10 C s       :     2.785263  s :     2.785263
      pz      :     1.076059  p :     3.196561
      px      :     1.056332
      py      :     1.064171
      dz2     :     0.028952  d :     0.150005
      dxz     :     0.032277
      dyz     :     0.035297
      dx2y2   :     0.029625
      dxy     :     0.023854
 11 C s       :     2.799083  s :     2.799083
      pz      :     1.031971  p :     3.213132
      px      :     1.086707
      py      :     1.094454
      dz2     :     0.023262  d :     0.089598
      dxz     :     0.014428
      dyz     :     0.023959
      dx2y2   :     0.020563
      dxy     :     0.007387
 12 C s       :     2.783184  s :     2.783184
      pz      :     0.940144  p :     2.832115
      px      :     0.936327
      py      :     0.955644
      dz2     :     0.098541  d :     0.407916
      dxz     :     0.103202
      dyz     :     0.071933
      dx2y2   :     0.066145
      dxy     :     0.068095
 13 O s       :     3.404128  s :     3.404128
      pz      :     1.506789  p :     4.623471
      px      :     1.484780
      py      :     1.631902
      dz2     :     0.007574  d :     0.018797
      dxz     :     0.003504
      dyz     :     0.002717
      dx2y2   :     0.000583
      dxy     :     0.004420
 14 O s       :     3.507485  s :     3.507485
      pz      :     1.692043  p :     4.675766
      px      :     1.462810
      py      :     1.520913
      dz2     :     0.003122  d :     0.022929
      dxz     :     0.003823
      dyz     :     0.002561
      dx2y2   :     0.004575
      dxy     :     0.008849
 15 H s       :     0.862499  s :     0.862499
      pz      :     0.038186  p :     0.069015
      px      :     0.016975
      py      :     0.013853
 16 H s       :     0.853295  s :     0.853295
      pz      :     0.021166  p :     0.068825
      px      :     0.018937
      py      :     0.028721
 17 H s       :     0.853912  s :     0.853912
      pz      :     0.013906  p :     0.070111
      px      :     0.041436
      py      :     0.014768
 18 H s       :     0.844849  s :     0.844849
      pz      :     0.022687  p :     0.070464
      px      :     0.019843
      py      :     0.027933
 19 H s       :     0.857095  s :     0.857095
      pz      :     0.022079  p :     0.068980
      px      :     0.020427
      py      :     0.026475
 20 H s       :     0.863231  s :     0.863231
      pz      :     0.037812  p :     0.068990
      px      :     0.017457
      py      :     0.013722
 21 H s       :     0.862914  s :     0.862914
      pz      :     0.017634  p :     0.068954
      px      :     0.014863
      py      :     0.036457
 22 H s       :     0.834960  s :     0.834960
      pz      :     0.023284  p :     0.069170
      px      :     0.017708
      py      :     0.028178
 23 H s       :     0.835471  s :     0.835471
      pz      :     0.018420  p :     0.069876
      px      :     0.015653
      py      :     0.035803
 24 H s       :     0.831664  s :     0.831664
      pz      :     0.018812  p :     0.070552
      px      :     0.017518
      py      :     0.034222
 25 H s       :     0.831185  s :     0.831185
      pz      :     0.017387  p :     0.070613
      px      :     0.022316
      py      :     0.030910
 26 H s       :     0.825604  s :     0.825604
      pz      :     0.018908  p :     0.070804
      px      :     0.017543
      py      :     0.034353
 27 H s       :     0.832767  s :     0.832767
      pz      :     0.017465  p :     0.070397
      px      :     0.022215
      py      :     0.030717
 28 H s       :     0.803442  s :     0.803442
      pz      :     0.019208  p :     0.071515
      px      :     0.017335
      py      :     0.034971
 29 H s       :     0.845917  s :     0.845917
      pz      :     0.019208  p :     0.069612
      px      :     0.016828
      py      :     0.033576
 30 H s       :     0.850253  s :     0.850253
      pz      :     0.020384  p :     0.069196
      px      :     0.016879
      py      :     0.031934
 31 H s       :     0.852269  s :     0.852269
      pz      :     0.013118  p :     0.069875
      px      :     0.042963
      py      :     0.013794
 32 H s       :     0.663931  s :     0.663931
      pz      :     0.032636  p :     0.183012
      px      :     0.080698
      py      :     0.069678


                      *****************************
                      * MAYER POPULATION ANALYSIS *
                      *****************************

  NA   - Mulliken gross atomic population
  ZA   - Total nuclear charge
  QA   - Mulliken gross atomic charge
  VA   - Mayer's total valence
  BVA  - Mayer's bonded valence
  FA   - Mayer's free valence

  ATOM       NA         ZA         QA         VA         BVA        FA
  0 C      6.7582     6.0000    -0.7582     3.6097     3.6097    -0.0000
  1 C      5.4708     6.0000     0.5292     2.4495     2.4495    -0.0000
  2 C      6.8508     6.0000    -0.8508     3.6342     3.6342     0.0000
  3 C      7.2415     6.0000    -1.2415     3.0212     3.0212     0.0000
  4 C      4.0679     6.0000     1.9321     0.1858     0.1858    -0.0000
  5 C      6.6521     6.0000    -0.6521     4.3789     4.3789    -0.0000
  6 C      6.5250     6.0000    -0.5250     3.3502     3.3502     0.0000
  7 C      5.0413     6.0000     0.9587     2.7062     2.7062     0.0000
  8 C      6.7577     6.0000    -0.7577     4.7409     4.7409     0.0000
  9 C      6.6829     6.0000    -0.6829     3.9347     3.9347     0.0000
 10 C      6.0071     6.0000    -0.0071     3.0008     3.0008    -0.0000
 11 C      6.7129     6.0000    -0.7129     3.7337     3.7337     0.0000
 12 C      6.0787     6.0000    -0.0787     4.2295     4.2295    -0.0000
 13 O      8.1646     8.0000    -0.1646     2.0385     2.0385    -0.0000
 14 O      8.3336     8.0000    -0.3336     2.0172     2.0172     0.0000
 15 H      0.8297     1.0000     0.1703     0.9411     0.9411    -0.0000
 16 H      0.8252     1.0000     0.1748     0.9422     0.9422     0.0000
 17 H      0.8233     1.0000     0.1767     0.9420     0.9420    -0.0000
 18 H      0.8335     1.0000     0.1665     0.9619     0.9619    -0.0000
 19 H      0.8263     1.0000     0.1737     0.9421     0.9421    -0.0000
 20 H      0.8296     1.0000     0.1704     0.9383     0.9383    -0.0000
 21 H      0.8308     1.0000     0.1692     0.9385     0.9385    -0.0000
 22 H      0.8192     1.0000     0.1808     0.9474     0.9474     0.0000
 23 H      0.8146     1.0000     0.1854     0.9374     0.9374    -0.0000
 24 H      0.8415     1.0000     0.1585     0.9625     0.9625     0.0000
 25 H      0.8370     1.0000     0.1630     0.9583     0.9583    -0.0000
 26 H      0.8300     1.0000     0.1700     0.9590     0.9590    -0.0000
 27 H      0.8422     1.0000     0.1578     0.9606     0.9606    -0.0000
 28 H      0.7662     1.0000     0.2338     0.9324     0.9324    -0.0000
 29 H      0.8027     1.0000     0.1973     0.9393     0.9393     0.0000
 30 H      0.8167     1.0000     0.1833     0.9410     0.9410     0.0000
 31 H      0.8150     1.0000     0.1850     0.9355     0.9355    -0.0000
 32 H      0.6714     1.0000     0.3286     0.9466     0.9466    -0.0000

  Mayer bond orders larger than 0.100000
B(  0-C ,  1-C ) :   0.6862 B(  0-C ,  2-C ) :  -0.1104 B(  0-C , 15-H ) :   1.0031 
B(  0-C , 16-H ) :   0.9962 B(  0-C , 17-H ) :   0.9896 B(  1-C ,  2-C ) :   0.5006 
B(  1-C ,  3-C ) :   0.6485 B(  1-C ,  5-C ) :   0.1344 B(  1-C , 18-H ) :   0.9484 
B(  2-C ,  3-C ) :   0.4387 B(  2-C ,  4-C ) :  -0.3938 B(  2-C ,  5-C ) :   0.1053 
B(  2-C , 19-H ) :   1.0242 B(  2-C , 20-H ) :   0.9980 B(  2-C , 21-H ) :   0.9921 
B(  3-C ,  4-C ) :  -0.9987 B(  3-C ,  5-C ) :   0.3149 B(  3-C ,  6-C ) :   0.1273 
B(  3-C ,  7-C ) :  -0.2512 B(  3-C ,  8-C ) :   0.2018 B(  3-C , 22-H ) :   1.2532 
B(  3-C , 23-H ) :   1.0875 B(  4-C ,  5-C ) :   1.0929 B(  4-C ,  7-C ) :   0.6920 
B(  4-C ,  8-C ) :  -0.3413 B(  4-C ,  9-C ) :   1.1022 B(  4-C , 10-C ) :  -0.1854 
B(  4-C , 18-H ) :  -0.1384 B(  4-C , 22-H ) :  -0.4694 B(  4-C , 23-H ) :  -0.1971 
B(  5-C ,  6-C ) :   1.1568 B(  5-C ,  9-C ) :   0.5725 B(  5-C , 24-H ) :   0.9601 
B(  6-C ,  7-C ) :   1.2630 B(  6-C ,  8-C ) :   0.4324 B(  6-C ,  9-C ) :  -0.3140 
B(  6-C , 12-C ) :  -0.1645 B(  6-C , 13-O ) :  -0.1476 B(  6-C , 25-H ) :   0.9573 
B(  6-C , 28-H ) :   0.1477 B(  7-C ,  8-C ) :   1.3921 B(  7-C , 10-C ) :   0.2283 
B(  7-C , 11-C ) :  -0.3890 B(  7-C , 12-C ) :  -0.3718 B(  7-C , 13-O ) :   0.3970 
B(  7-C , 28-H ) :  -0.3047 B(  7-C , 29-H ) :  -0.1506 B(  7-C , 32-H ) :   0.1627 
B(  8-C ,  9-C ) :   1.2250 B(  8-C , 10-C ) :   0.1387 B(  8-C , 11-C ) :   0.3802 
B(  8-C , 12-C ) :   0.5439 B(  8-C , 14-O ) :  -0.1620 B(  8-C , 26-H ) :   0.9148 
B(  9-C , 10-C ) :   0.2391 B(  9-C , 22-H ) :   0.2173 B(  9-C , 27-H ) :   0.9500 
B( 10-C , 11-C ) :   0.8784 B( 10-C , 12-C ) :   0.8437 B( 10-C , 13-O ) :  -0.2826 
B( 10-C , 28-H ) :   1.0371 B( 11-C , 29-H ) :   0.9592 B( 11-C , 30-H ) :   0.9950 
B( 11-C , 31-H ) :   0.9845 B( 12-C , 13-O ) :   1.3602 B( 12-C , 14-O ) :   2.0468 
B( 13-O , 32-H ) :   0.8319 

-------
TIMINGS
-------

Total SCF time: 0 days 0 hours 0 min 32 sec 

Total time                  ....      32.412 sec
Sum of individual times     ....      32.056 sec  ( 98.9%)

Fock matrix formation       ....      30.759 sec  ( 94.9%)
  Split-RI-J                ....       6.987 sec  ( 22.7% of F)
  XC integration            ....      11.521 sec  ( 37.5% of F)
    Basis function eval.    ....       3.621 sec  ( 31.4% of XC)
    Density eval.           ....       4.233 sec  ( 36.7% of XC)
    XC-Functional eval.     ....       0.228 sec  (  2.0% of XC)
    XC-Potential eval.      ....       2.873 sec  ( 24.9% of XC)
Diagonalization             ....       0.017 sec  (  0.1%)
Density matrix formation    ....       0.014 sec  (  0.0%)
Population analysis         ....       0.028 sec  (  0.1%)
Initial guess               ....       0.018 sec  (  0.1%)
Orbital Transformation      ....       0.000 sec  (  0.0%)
Orbital Orthonormalization  ....       0.013 sec  (  0.0%)
DIIS solution               ....       0.006 sec  (  0.0%)
SOSCF solution              ....       0.116 sec  (  0.4%)
Grid generation             ....       1.098 sec  (  3.4%)

Maximum memory used throughout the entire SCF-calculation: 159.3 MB

-------------------------   --------------------
FINAL SINGLE POINT ENERGY      -656.060168557197
-------------------------   --------------------

                                *** OPTIMIZATION RUN DONE ***

                            ***************************************
                            *     ORCA property calculations      *
                            ***************************************

                                    ---------------------
                                    Active property flags
                                    ---------------------
   (+) Dipole Moment


------------------------------------------------------------------------------
                       ORCA ELECTRIC PROPERTIES CALCULATION
------------------------------------------------------------------------------

Dipole Moment Calculation                       ... on
Quadrupole Moment Calculation                   ... off
Polarizability Calculation                      ... off
GBWName                                         ... Ibuprofeno\Ibuprofeno_PBE_6-311+G\Ibuprofeno_PBE_6-311+G.orcainp.gbw
Electron density                                ... Ibuprofeno\Ibuprofeno_PBE_6-311+G\Ibuprofeno_PBE_6-311+G.orcainp.scfp
The origin for moment calculation is the CENTER OF MASS  = (11.547019,  2.186368  2.910715)

-------------
DIPOLE MOMENT
-------------
                                X             Y             Z
Electronic contribution:     19.10938       2.48920      -1.35654
Nuclear contribution   :    -21.07732      -4.19957       1.30206
                        -----------------------------------------
Total Dipole Moment    :     -1.96794      -1.71037      -0.05448
                        -----------------------------------------
Magnitude (a.u.)       :      2.60790
Magnitude (Debye)      :      6.62875



--------------------
Rotational spectrum 
--------------------
 
Rotational constants in cm-1:     0.047821     0.008472     0.007979 
Rotational constants in MHz :  1433.626218   253.984096   239.197009 

 Dipole components along the rotational axes: 
x,y,z [a.u.] :    -2.148278    -1.202176    -0.860701 
x,y,z [Debye]:    -5.460489    -3.055688    -2.187728 

 

Timings for individual modules:

Sum of individual times         ...     1577.923 sec (=  26.299 min)
GTO integral calculation        ...        5.059 sec (=   0.084 min)   0.3 %
SCF iterations                  ...     1239.336 sec (=  20.656 min)  78.5 %
SCF Gradient evaluation         ...      332.114 sec (=   5.535 min)  21.0 %
Geometry relaxation             ...        1.414 sec (=   0.024 min)   0.1 %
                             ****ORCA TERMINATED NORMALLY****
TOTAL RUN TIME: 0 days 0 hours 26 minutes 19 seconds 664 msec
