
                                 *****************
                                 * O   R   C   A *
                                 *****************

                                            #,                                       
                                            ###                                      
                                            ####                                     
                                            #####                                    
                                            ######                                   
                                           ########,                                 
                                     ,,################,,,,,                         
                               ,,#################################,,                 
                          ,,##########################################,,             
                       ,#########################################, ''#####,          
                    ,#############################################,,   '####,        
                  ,##################################################,,,,####,       
                ,###########''''           ''''###############################       
              ,#####''   ,,,,##########,,,,          '''####'''          '####       
            ,##' ,,,,###########################,,,                        '##       
           ' ,,###''''                  '''############,,,                           
         ,,##''                                '''############,,,,        ,,,,,,###''
      ,#''                                            '''#######################'''  
     '                                                          ''''####''''         
             ,#######,   #######,   ,#######,      ##                                
            ,#'     '#,  ##    ##  ,#'     '#,    #''#        ######   ,####,        
            ##       ##  ##   ,#'  ##            #'  '#       #        #'  '#        
            ##       ##  #######   ##           ,######,      #####,   #    #        
            '#,     ,#'  ##    ##  '#,     ,#' ,#      #,         ##   #,  ,#        
             '#######'   ##     ##  '#######'  #'      '#     #####' # '####'        



                  #######################################################
                  #                        -***-                        #
                  #          Department of theory and spectroscopy      #
                  #    Directorship and core code : Frank Neese         #
                  #        Max Planck Institute fuer Kohlenforschung    #
                  #                Kaiser Wilhelm Platz 1               #
                  #                 D-45470 Muelheim/Ruhr               #
                  #                      Germany                        #
                  #                                                     #
                  #                  All rights reserved                #
                  #                        -***-                        #
                  #######################################################



                         Program Version 5.0.4 -  RELEASE  -

 With contributions from (in alphabetic order):
   Daniel Aravena         : Magnetic Suceptibility
   Michael Atanasov       : Ab Initio Ligand Field Theory (pilot matlab implementation)
   Alexander A. Auer      : GIAO ZORA, VPT2 properties, NMR spectrum
   Ute Becker             : Parallelization
   Giovanni Bistoni       : ED, misc. LED, open-shell LED, HFLD
   Martin Brehm           : Molecular dynamics
   Dmytro Bykov           : SCF Hessian
   Vijay G. Chilkuri      : MRCI spin determinant printing, contributions to CSF-ICE
   Dipayan Datta          : RHF DLPNO-CCSD density
   Achintya Kumar Dutta   : EOM-CC, STEOM-CC
   Dmitry Ganyushin       : Spin-Orbit,Spin-Spin,Magnetic field MRCI
   Miquel Garcia          : C-PCM and meta-GGA Hessian, CC/C-PCM, Gaussian charge scheme
   Yang Guo               : DLPNO-NEVPT2, F12-NEVPT2, CIM, IAO-localization
   Andreas Hansen         : Spin unrestricted coupled pair/coupled cluster methods
   Benjamin Helmich-Paris : MC-RPA, TRAH-SCF, COSX integrals
   Lee Huntington         : MR-EOM, pCC
   Robert Izsak           : Overlap fitted RIJCOSX, COSX-SCS-MP3, EOM
   Marcus Kettner         : VPT2
   Christian Kollmar      : KDIIS, OOCD, Brueckner-CCSD(T), CCSD density, CASPT2, CASPT2-K
   Simone Kossmann        : Meta GGA functionals, TD-DFT gradient, OOMP2, MP2 Hessian
   Martin Krupicka        : Initial AUTO-CI
   Lucas Lang             : DCDCAS
   Marvin Lechner         : AUTO-CI (C++ implementation), FIC-MRCC
   Dagmar Lenk            : GEPOL surface, SMD
   Dimitrios Liakos       : Extrapolation schemes; Compound Job, initial MDCI parallelization
   Dimitrios Manganas     : Further ROCIS development; embedding schemes
   Dimitrios Pantazis     : SARC Basis sets
   Anastasios Papadopoulos: AUTO-CI, single reference methods and gradients
   Taras Petrenko         : DFT Hessian,TD-DFT gradient, ASA, ECA, R-Raman, ABS, FL, XAS/XES, NRVS
   Peter Pinski           : DLPNO-MP2, DLPNO-MP2 Gradient
   Christoph Reimann      : Effective Core Potentials
   Marius Retegan         : Local ZFS, SOC
   Christoph Riplinger    : Optimizer, TS searches, QM/MM, DLPNO-CCSD(T), (RO)-DLPNO pert. Triples
   Tobias Risthaus        : Range-separated hybrids, TD-DFT gradient, RPA, STAB
   Michael Roemelt        : Original ROCIS implementation
   Masaaki Saitow         : Open-shell DLPNO-CCSD energy and density
   Barbara Sandhoefer     : DKH picture change effects
   Avijit Sen             : IP-ROCIS
   Kantharuban Sivalingam : CASSCF convergence, NEVPT2, FIC-MRCI
   Bernardo de Souza      : ESD, SOC TD-DFT
   Georgi Stoychev        : AutoAux, RI-MP2 NMR, DLPNO-MP2 response
   Willem Van den Heuvel  : Paramagnetic NMR
   Boris Wezisla          : Elementary symmetry handling
   Frank Wennmohs         : Technical directorship


 We gratefully acknowledge several colleagues who have allowed us to
 interface, adapt or use parts of their codes:
   Stefan Grimme, W. Hujo, H. Kruse, P. Pracht,  : VdW corrections, initial TS optimization,
                  C. Bannwarth, S. Ehlert          DFT functionals, gCP, sTDA/sTD-DF
   Ed Valeev, F. Pavosevic, A. Kumar             : LibInt (2-el integral package), F12 methods
   Garnet Chan, S. Sharma, J. Yang, R. Olivares  : DMRG
   Ulf Ekstrom                                   : XCFun DFT Library
   Mihaly Kallay                                 : mrcc  (arbitrary order and MRCC methods)
   Jiri Pittner, Ondrej Demel                    : Mk-CCSD
   Frank Weinhold                                : gennbo (NPA and NBO analysis)
   Christopher J. Cramer and Donald G. Truhlar   : smd solvation model
   Lars Goerigk                                  : TD-DFT with DH, B97 family of functionals
   V. Asgeirsson, H. Jonsson                     : NEB implementation
   FAccTs GmbH                                   : IRC, NEB, NEB-TS, DLPNO-Multilevel, CI-OPT
                                                   MM, QMMM, 2- and 3-layer-ONIOM, Crystal-QMMM,
                                                   LR-CPCM, SF, NACMEs, symmetry and pop. for TD-DFT,
                                                   nearIR, NL-DFT gradient (VV10), updates on ESD,
                                                   ML-optimized integration grids
   S Lehtola, MJT Oliveira, MAL Marques          : LibXC Library
   Liviu Ungur et al                             : ANISO software


 Your calculation uses the libint2 library for the computation of 2-el integrals
 For citations please refer to: http://libint.valeyev.net

 Your ORCA version has been built with support for libXC version: 5.1.0
 For citations please refer to: https://tddft.org/programs/libxc/

 This ORCA versions uses:
   CBLAS   interface :  Fast vector & matrix operations
   LAPACKE interface :  Fast linear algebra routines
   Shared memory     :  Shared parallel matrices


================================================================================

----- Orbital basis set information -----
Your calculation utilizes the basis: def2-TZVP
   F. Weigend and R. Ahlrichs, Phys. Chem. Chem. Phys. 7, 3297 (2005).

----- AuxJ basis set information -----
Your calculation utilizes the auxiliary basis: def2/J
   F. Weigend, Phys. Chem. Chem. Phys. 8, 1057 (2006).

================================================================================
                                        WARNINGS
                       Please study these warnings very carefully!
================================================================================


WARNING: Geometry Optimization
  ===> : Switching off AutoStart
         For restart on a previous wavefunction, please use MOREAD

INFO   : the flag for use of the SHARK integral package has been found!

================================================================================
                                       INPUT FILE
================================================================================
NAME = Dexketoprofen\Dexketoprofen_B3LYP_def2-TZVP\Dexketoprofen_B3LYP_def2-TZVP.orcainp
|  1> # ORCA input file
|  2> # 
|  3> !B3LYP def2-TZVP Opt CPCM(WATER)
|  4> 
|  5> * xyz 0 1
|  6>    H        2.00250        -0.97652        -0.40737
|  7>    C        2.12691         0.04515        -0.01930
|  8>    C        3.18653         0.74372        -0.88584
|  9>    C        0.77693         0.72908        -0.24715
| 10>    O       -0.09000         0.66634         0.79607
| 11>    O        0.43454         1.24174        -1.30655
| 12>    C        2.59669        -0.05102         1.43442
| 13>    C        2.81147        -1.30422         2.04756
| 14>    C        3.29655        -1.38571         3.36637
| 15>    C        3.61456        -0.21427         4.05923
| 16>    C        3.37408         1.02811         3.47642
| 17>    C        2.85272         1.11055         2.18336
| 18>    C        3.51606        -2.67581         4.06883
| 19>    O        4.46597        -2.78146         4.84235
| 20>    C        2.60272        -3.83812         3.89052
| 21>    C        1.24693        -3.67494         3.58221
| 22>    C        0.43272        -4.79349         3.39241
| 23>    C        0.96277        -6.07579         3.53543
| 24>    C        2.29946        -6.24394         3.89158
| 25>    C        3.11809        -5.12845         4.07659
| 26>    H        2.86710         0.79991        -1.93235
| 27>    H        4.14117         0.20650        -0.85983
| 28>    H        3.36875         1.77216        -0.55415
| 29>    H        0.26521         0.23991         1.59854
| 30>    H        2.63348        -2.21860         1.48382
| 31>    H        4.04752        -0.26791         5.05642
| 32>    H        3.60568         1.93642         4.03029
| 33>    H        2.67279         2.09775         1.75905
| 34>    H        0.80211        -2.68733         3.50254
| 35>    H       -0.61725        -4.66734         3.13986
| 36>    H        0.32782        -6.94633         3.38409
| 37>    H        2.70685        -7.24304         4.02571
| 38>    H        4.15777        -5.26632         4.36571
| 39> *
| 40> 
| 41>                          ****END OF INPUT****
================================================================================

                       *****************************
                       * Geometry Optimization Run *
                       *****************************

Geometry optimization settings:
Update method            Update   .... BFGS
Choice of coordinates    CoordSys .... Z-matrix Internals
Initial Hessian          InHess   .... Almoef's Model

Convergence Tolerances:
Energy Change            TolE     ....  5.0000e-06 Eh
Max. Gradient            TolMAXG  ....  3.0000e-04 Eh/bohr
RMS Gradient             TolRMSG  ....  1.0000e-04 Eh/bohr
Max. Displacement        TolMAXD  ....  4.0000e-03 bohr
RMS Displacement         TolRMSD  ....  2.0000e-03 bohr
Strict Convergence                ....  False
------------------------------------------------------------------------------
                        ORCA OPTIMIZATION COORDINATE SETUP
------------------------------------------------------------------------------

The optimization will be done in new redundant internal coordinates
Making redundant internal coordinates   ...  (new redundants) done
Evaluating the initial hessian          ...  (Almloef) done
Evaluating the coordinates              ...  done
Calculating the B-matrix                .... done
Calculating the G-matrix                .... done
Diagonalizing the G-matrix              .... done
Small eigenvalue found = 3.216e-03
Small eigenvalue found = 1.299e-02
Small eigenvalue found = 1.681e-02
Small eigenvalue found = 2.932e-02
The first mode is                       ....   75
The number of degrees of freedom        ....   93

    -----------------------------------------------------------------
                    Redundant Internal Coordinates


    -----------------------------------------------------------------
         Definition                    Initial Value    Approx d2E/dq
    -----------------------------------------------------------------
      1. B(C   1,H   0)                  1.0999         0.347178   
      2. B(C   2,C   1)                  1.5368         0.364388   
      3. B(C   3,C   1)                  1.5304         0.373027   
      4. B(O   4,C   3)                  1.3579         0.629704   
      5. B(O   5,C   3)                  1.2257         1.023246   
      6. B(C   6,C   1)                  1.5308         0.372525   
      7. B(C   7,C   6)                  1.4116         0.577160   
      8. B(C   8,C   7)                  1.4076         0.585781   
      9. B(C   9,C   8)                  1.3977         0.607457   
     10. B(C  10,C   9)                  1.3932         0.617495   
     11. B(C  11,C  10)                  1.3966         0.609729   
     12. B(C  11,C   6)                  1.4056         0.590000   
     13. B(C  12,C   8)                  1.4853         0.440311   
     14. B(O  13,C  12)                  1.2296         1.008888   
     15. B(C  14,C  12)                  1.4889         0.434393   
     16. B(C  15,C  14)                  1.3999         0.602379   
     17. B(C  16,C  15)                  1.3965         0.610131   
     18. B(C  17,C  16)                  1.3949         0.613687   
     19. B(C  18,C  17)                  1.3935         0.616802   
     20. B(C  19,C  18)                  1.3960         0.611267   
     21. B(C  19,C  14)                  1.4018         0.598184   
     22. B(H  20,C   2)                  1.0956         0.352746   
     23. B(H  21,C   2)                  1.0957         0.352602   
     24. B(H  22,C   2)                  1.0959         0.352430   
     25. B(H  23,O   4)                  0.9757         0.490830   
     26. B(H  24,C   7)                  1.0888         0.361637   
     27. B(H  25,C   9)                  1.0884         0.362159   
     28. B(H  26,C  10)                  1.0888         0.361720   
     29. B(H  27,C  11)                  1.0895         0.360782   
     30. B(H  28,C  15)                  1.0861         0.365313   
     31. B(H  29,C  16)                  1.0873         0.363744   
     32. B(H  30,C  17)                  1.0881         0.362657   
     33. B(H  31,C  18)                  1.0873         0.363728   
     34. B(H  32,C  19)                  1.0879         0.362885   
     35. A(C   2,C   1,C   3)          108.7311         0.361719   
     36. A(C   3,C   1,C   6)          116.1152         0.363086   
     37. A(H   0,C   1,C   2)          107.5338         0.321069   
     38. A(H   0,C   1,C   3)          105.2360         0.322303   
     39. A(H   0,C   1,C   6)          108.1441         0.322232   
     40. A(C   2,C   1,C   6)          110.6367         0.361636   
     41. A(C   1,C   2,H  21)          111.3751         0.321885   
     42. A(H  20,C   2,H  22)          106.8255         0.288922   
     43. A(C   1,C   2,H  20)          111.1543         0.321906   
     44. A(H  20,C   2,H  21)          107.5676         0.288944   
     45. A(H  21,C   2,H  22)          107.9428         0.288904   
     46. A(C   1,C   2,H  22)          111.7516         0.321859   
     47. A(O   4,C   3,O   5)          120.3321         0.470505   
     48. A(C   1,C   3,O   5)          124.1945         0.430681   
     49. A(C   1,C   3,O   4)          115.3502         0.395125   
     50. A(C   3,O   4,H  23)          114.8118         0.367449   
     51. A(C   7,C   6,C  11)          118.3273         0.424729   
     52. A(C   1,C   6,C  11)          120.6632         0.393056   
     53. A(C   1,C   6,C   7)          120.9955         0.391545   
     54. A(C   8,C   7,H  24)          119.5260         0.349791   
     55. A(C   6,C   7,C   8)          120.7179         0.424184   
     56. A(C   6,C   7,H  24)          119.7216         0.348917   
     57. A(C   7,C   8,C   9)          119.6277         0.428088   
     58. A(C   9,C   8,C  12)          117.3825         0.406872   
     59. A(C   7,C   8,C  12)          122.9807         0.404268   
     60. A(C   8,C   9,C  10)          120.0504         0.432159   
     61. A(C  10,C   9,H  25)          119.7263         0.353008   
     62. A(C   8,C   9,H  25)          120.2230         0.352030   
     63. A(C   9,C  10,H  26)          119.6311         0.352935   
     64. A(C  11,C  10,H  26)          120.0755         0.352180   
     65. A(C   9,C  10,C  11)          120.2896         0.432449   
     66. A(C  10,C  11,H  27)          118.4056         0.352026   
     67. A(C   6,C  11,H  27)          120.7443         0.350075   
     68. A(C   6,C  11,C  10)          120.8321         0.428926   
     69. A(O  13,C  12,C  14)          118.8268         0.441535   
     70. A(C   8,C  12,C  14)          122.0567         0.383639   
     71. A(C   8,C  12,O  13)          119.1009         0.442616   
     72. A(C  15,C  14,C  19)          119.5090         0.429053   
     73. A(C  12,C  14,C  19)          118.4974         0.404798   
     74. A(C  12,C  14,C  15)          121.9683         0.405298   
     75. A(C  14,C  15,C  16)          120.0813         0.430579   
     76. A(C  16,C  15,H  28)          118.6589         0.352809   
     77. A(C  14,C  15,H  28)          121.2512         0.352047   
     78. A(C  15,C  16,C  17)          120.0559         0.432020   
     79. A(C  17,C  16,H  29)          119.8308         0.352899   
     80. A(C  15,C  16,H  29)          120.1118         0.352552   
     81. A(C  16,C  17,C  18)          120.1083         0.432865   
     82. A(C  18,C  17,H  30)          119.9185         0.353023   
     83. A(C  16,C  17,H  30)          119.9662         0.352720   
     84. A(C  17,C  18,C  19)          119.9979         0.432558   
     85. A(C  19,C  18,H  31)          119.8813         0.352661   
     86. A(C  17,C  18,H  31)          120.1208         0.353199   
     87. A(C  14,C  19,C  18)          120.1545         0.430182   
     88. A(C  18,C  19,H  32)          119.6294         0.352522   
     89. A(C  14,C  19,H  32)          120.2161         0.351235   
     90. D(H  20,C   2,C   1,C   3)    -52.4567         0.010635   
     91. D(H  22,C   2,C   1,H   0)   -179.7485         0.010635   
     92. D(H  21,C   2,C   1,C   3)   -172.3904         0.010635   
     93. D(H  21,C   2,C   1,H   0)    -58.9281         0.010635   
     94. D(H  21,C   2,C   1,C   6)     58.9739         0.010635   
     95. D(H  20,C   2,C   1,C   6)    178.9077         0.010635   
     96. D(H  22,C   2,C   1,C   6)    -61.8464         0.010635   
     97. D(H  20,C   2,C   1,H   0)     61.0056         0.010635   
     98. D(H  22,C   2,C   1,C   3)     66.7892         0.010635   
     99. D(O   5,C   3,C   1,C   2)     31.8545         0.010408   
    100. D(O   5,C   3,C   1,H   0)    -83.1103         0.010408   
    101. D(O   4,C   3,C   1,C   6)    -26.6823         0.010408   
    102. D(O   4,C   3,C   1,C   2)   -152.1815         0.010408   
    103. D(O   5,C   3,C   1,C   6)    157.3537         0.010408   
    104. D(O   4,C   3,C   1,H   0)     92.8537         0.010408   
    105. D(H  23,O   4,C   3,O   5)    179.8330         0.029159   
    106. D(H  23,O   4,C   3,C   1)      3.7005         0.029159   
    107. D(C  11,C   6,C   1,C   2)     61.7883         0.010382   
    108. D(C  11,C   6,C   1,H   0)    179.3164         0.010382   
    109. D(C   7,C   6,C   1,C   3)    118.6435         0.010382   
    110. D(C  11,C   6,C   1,C   3)    -62.7378         0.010382   
    111. D(C   7,C   6,C   1,C   2)   -116.8305         0.010382   
    112. D(C   7,C   6,C   1,H   0)      0.6977         0.010382   
    113. D(H  24,C   7,C   6,C  11)   -179.1619         0.022876   
    114. D(H  24,C   7,C   6,C   1)     -0.5116         0.022876   
    115. D(C   8,C   7,C   6,C  11)     -1.3089         0.022876   
    116. D(C   8,C   7,C   6,C   1)    177.3414         0.022876   
    117. D(C  12,C   8,C   7,H  24)     -3.3445         0.023597   
    118. D(C  12,C   8,C   7,C   6)    178.7983         0.023597   
    119. D(C   9,C   8,C   7,H  24)    175.5364         0.023597   
    120. D(C   9,C   8,C   7,C   6)     -2.3208         0.023597   
    121. D(H  25,C   9,C   8,C  12)      2.6971         0.025473   
    122. D(H  25,C   9,C   8,C   7)   -176.2457         0.025473   
    123. D(C  10,C   9,C   8,C  12)   -177.1002         0.025473   
    124. D(C  10,C   9,C   8,C   7)      3.9570         0.025473   
    125. D(H  26,C  10,C   9,H  25)     -1.0334         0.026372   
    126. D(H  26,C  10,C   9,C   8)    178.7649         0.026372   
    127. D(C  11,C  10,C   9,H  25)    178.2602         0.026372   
    128. D(C  11,C  10,C   9,C   8)     -1.9415         0.026372   
    129. D(H  27,C  11,C  10,C   9)    179.7519         0.025675   
    130. D(C   6,C  11,C  10,H  26)    177.5099         0.025675   
    131. D(C   6,C  11,C  10,C   9)     -1.7805         0.025675   
    132. D(H  27,C  11,C   6,C   7)   -178.2060         0.023955   
    133. D(H  27,C  11,C   6,C   1)      3.1391         0.023955   
    134. D(C  10,C  11,C   6,C   7)      3.3624         0.023955   
    135. D(H  27,C  11,C  10,H  26)     -0.9577         0.025675   
    136. D(C  10,C  11,C   6,C   1)   -175.2925         0.023955   
    137. D(C  14,C  12,C   8,C   9)    144.0346         0.013228   
    138. D(C  14,C  12,C   8,C   7)    -37.0609         0.013228   
    139. D(O  13,C  12,C   8,C   9)    -34.5126         0.013228   
    140. D(O  13,C  12,C   8,C   7)    144.3919         0.013228   
    141. D(C  19,C  14,C  12,O  13)    -28.4954         0.012884   
    142. D(C  19,C  14,C  12,C   8)    152.9536         0.012884   
    143. D(C  15,C  14,C  12,O  13)    149.6670         0.012884   
    144. D(C  15,C  14,C  12,C   8)    -28.8841         0.012884   
    145. D(H  28,C  15,C  14,C  19)    175.5516         0.025026   
    146. D(H  28,C  15,C  14,C  12)     -2.5927         0.025026   
    147. D(C  16,C  15,C  14,C  19)     -3.3705         0.025026   
    148. D(C  16,C  15,C  14,C  12)    178.4853         0.025026   
    149. D(H  29,C  16,C  15,H  28)      1.8689         0.025711   
    150. D(H  29,C  16,C  15,C  14)   -179.1813         0.025711   
    151. D(C  17,C  16,C  15,H  28)   -177.6939         0.025711   
    152. D(C  17,C  16,C  15,C  14)      1.2559         0.025711   
    153. D(H  30,C  17,C  16,H  29)      0.6313         0.026029   
    154. D(H  30,C  17,C  16,C  15)   -179.8046         0.026029   
    155. D(C  18,C  17,C  16,H  29)   -178.4033         0.026029   
    156. D(C  18,C  17,C  16,C  15)      1.1608         0.026029   
    157. D(H  31,C  18,C  17,H  30)     -0.4591         0.026309   
    158. D(H  31,C  18,C  17,C  16)    178.5759         0.026309   
    159. D(C  19,C  18,C  17,H  30)    179.5309         0.026309   
    160. D(C  19,C  18,C  17,C  16)     -1.4341         0.026309   
    161. D(H  32,C  19,C  18,C  17)    179.3021         0.025812   
    162. D(C  14,C  19,C  18,H  31)    179.2837         0.025812   
    163. D(C  14,C  19,C  18,C  17)     -0.7063         0.025812   
    164. D(H  32,C  19,C  14,C  15)   -176.9095         0.024660   
    165. D(H  32,C  19,C  14,C  12)      1.2991         0.024660   
    166. D(C  18,C  19,C  14,C  15)      3.0990         0.024660   
    167. D(H  32,C  19,C  18,H  31)     -0.7078         0.025812   
    168. D(C  18,C  19,C  14,C  12)   -178.6924         0.024660   
    -----------------------------------------------------------------

Number of atoms                         .... 33
Number of degrees of freedom            .... 168

         *************************************************************
         *                GEOMETRY OPTIMIZATION CYCLE   1            *
         *************************************************************
---------------------------------
CARTESIAN COORDINATES (ANGSTROEM)
---------------------------------
  H      2.002500   -0.976520   -0.407370
  C      2.126910    0.045150   -0.019300
  C      3.186530    0.743720   -0.885840
  C      0.776930    0.729080   -0.247150
  O     -0.090000    0.666340    0.796070
  O      0.434540    1.241740   -1.306550
  C      2.596690   -0.051020    1.434420
  C      2.811470   -1.304220    2.047560
  C      3.296550   -1.385710    3.366370
  C      3.614560   -0.214270    4.059230
  C      3.374080    1.028110    3.476420
  C      2.852720    1.110550    2.183360
  C      3.516060   -2.675810    4.068830
  O      4.465970   -2.781460    4.842350
  C      2.602720   -3.838120    3.890520
  C      1.246930   -3.674940    3.582210
  C      0.432720   -4.793490    3.392410
  C      0.962770   -6.075790    3.535430
  C      2.299460   -6.243940    3.891580
  C      3.118090   -5.128450    4.076590
  H      2.867100    0.799910   -1.932350
  H      4.141170    0.206500   -0.859830
  H      3.368750    1.772160   -0.554150
  H      0.265210    0.239910    1.598540
  H      2.633480   -2.218600    1.483820
  H      4.047520   -0.267910    5.056420
  H      3.605680    1.936420    4.030290
  H      2.672790    2.097750    1.759050
  H      0.802110   -2.687330    3.502540
  H     -0.617250   -4.667340    3.139860
  H      0.327820   -6.946330    3.384090
  H      2.706850   -7.243040    4.025710
  H      4.157770   -5.266320    4.365710

----------------------------
CARTESIAN COORDINATES (A.U.)
----------------------------
  NO LB      ZA    FRAG     MASS         X           Y           Z
   0 H     1.0000    0     1.008    3.784177   -1.845355   -0.769818
   1 C     6.0000    0    12.011    4.019277    0.085321   -0.036472
   2 C     6.0000    0    12.011    6.021669    1.405427   -1.673995
   3 C     6.0000    0    12.011    1.468185    1.377762   -0.467046
   4 O     8.0000    0    15.999   -0.170075    1.259200    1.504354
   5 O     8.0000    0    15.999    0.821162    2.346549   -2.469022
   6 C     6.0000    0    12.011    4.907033   -0.096414    2.710661
   7 C     6.0000    0    12.011    5.312908   -2.464619    3.869328
   8 C     6.0000    0    12.011    6.229577   -2.618612    6.361517
   9 C     6.0000    0    12.011    6.830528   -0.404912    7.670833
  10 C     6.0000    0    12.011    6.376087    1.942846    6.569482
  11 C     6.0000    0    12.011    5.390860    2.098635    4.125952
  12 C     6.0000    0    12.011    6.644390   -5.056548    7.688974
  13 O     8.0000    0    15.999    8.439460   -5.256198    9.150715
  14 C     6.0000    0    12.011    4.918428   -7.252996    7.352017
  15 C     6.0000    0    12.011    2.356356   -6.944630    6.769396
  16 C     6.0000    0    12.011    0.817722   -9.058383    6.410726
  17 C     6.0000    0    12.011    1.819372  -11.481579    6.680994
  18 C     6.0000    0    12.011    4.345350  -11.799337    7.354020
  19 C     6.0000    0    12.011    5.892336   -9.691366    7.703639
  20 H     1.0000    0     1.008    5.418034    1.511611   -3.651612
  21 H     1.0000    0     1.008    7.825677    0.390228   -1.624843
  22 H     1.0000    0     1.008    6.366015    3.348897   -1.047192
  23 H     1.0000    0     1.008    0.501174    0.453364    3.020803
  24 H     1.0000    0     1.008    4.976556   -4.192546    2.804013
  25 H     1.0000    0     1.008    7.648704   -0.506277    9.555249
  26 H     1.0000    0     1.008    6.813748    3.659303    7.616144
  27 H     1.0000    0     1.008    5.050841    3.964173    3.324123
  28 H     1.0000    0     1.008    1.515768   -5.078318    6.618841
  29 H     1.0000    0     1.008   -1.166433   -8.819994    5.933475
  30 H     1.0000    0     1.008    0.619490  -13.126661    6.395003
  31 H     1.0000    0     1.008    5.115205  -13.687362    7.607489
  32 H     1.0000    0     1.008    7.857047   -9.951903    8.249996

--------------------------------
INTERNAL COORDINATES (ANGSTROEM)
--------------------------------
 H      0   0   0     0.000000000000     0.00000000     0.00000000
 C      1   0   0     1.099948072365     0.00000000     0.00000000
 C      2   1   0     1.536777850211   107.53381402     0.00000000
 C      2   1   3     1.530399251111   105.23595434   115.79135263
 O      4   2   1     1.357870354968   115.35018568    92.85366078
 O      4   2   1     1.225715932710   124.19453327   276.88965787
 C      2   1   3     1.530765741614   108.14407610   240.49557100
 C      7   2   1     1.411588235995   120.99547072     0.69770521
 C      8   7   2     1.407552145606   120.71792168   177.34138243
 C      9   8   7     1.397661265579   119.62773279   357.67920956
 C     10   9   8     1.393199982379   120.05036642     3.95698483
 C     11  10   9     1.396644824857   120.28956830   358.05849633
 C      9   8   7     1.485258462928   122.98074281   178.79833460
 O     13   9   8     1.229562573032   119.10093848   144.39185929
 C     13   9   8     1.488942224467   122.05671454   322.93908595
 C     15  13   9     1.399946174894   121.96830222   331.11589444
 C     16  15  13     1.396465562268   120.08131109   178.48529192
 C     17  16  15     1.394883870758   120.05591482     1.25585581
 C     18  17  16     1.393505436337   120.10825184     1.16079036
 C     19  18  17     1.395959067129   119.99788894   358.56592723
 H      3   2   1     1.095616730933   111.15426080    61.00564773
 H      3   2   1     1.095727784671   111.37510439   301.07187460
 H      3   2   1     1.095860948342   111.75163987   180.25153798
 H      5   4   2     0.975691954410   114.81182227     3.70046596
 H      8   7   2     1.088840673423   119.72160773   359.48837669
 H     10   9   8     1.088448210665   120.22298929   183.75429645
 H     11  10   9     1.088778027423   119.63114204   178.76494144
 H     12  11  10     1.089485025597   118.40557904   179.75190701
 H     16  15  13     1.086087313893   121.25122609   357.40733596
 H     17  16  15     1.087259088672   120.11183264   180.81870084
 H     18  17  16     1.088074073627   119.96622544   180.19535966
 H     19  18  17     1.087271023710   120.12077408   178.57593392
 H     20  19  18     1.087903035063   119.62937797   179.30214783

---------------------------
INTERNAL COORDINATES (A.U.)
---------------------------
 H      0   0   0     0.000000000000     0.00000000     0.00000000
 C      1   0   0     2.078600618305     0.00000000     0.00000000
 C      2   1   0     2.904089265576   107.53381402     0.00000000
 C      2   1   3     2.892035460157   105.23595434   115.79135263
 O      4   2   1     2.566003096259   115.35018568    92.85366078
 O      4   2   1     2.316267430806   124.19453327   276.88965787
 C      2   1   3     2.892728026840   108.14407610   240.49557100
 C      7   2   1     2.667515179896   120.99547072     0.69770521
 C      8   7   2     2.659888074409   120.71792168   177.34138243
 C      9   8   7     2.641197019934   119.62773279   357.67920956
 C     10   9   8     2.632766416480   120.05036642     3.95698483
 C     11  10   9     2.639276225338   120.28956830   358.05849633
 C      9   8   7     2.806731733023   122.98074281   178.79833460
 O     13   9   8     2.323536527549   119.10093848   144.39185929
 C     13   9   8     2.813693033474   122.05671454   322.93908595
 C     15  13   9     2.645514872780   121.96830222   331.11589444
 C     16  15  13     2.638937468139   120.08131109   178.48529192
 C     17  16  15     2.635948504356   120.05591482     1.25585581
 C     18  17  16     2.633343640807   120.10825184     1.16079036
 C     19  18  17     2.637980331038   119.99788894   358.56592723
 H      3   2   1     2.070415569205   111.15426080    61.00564773
 H      3   2   1     2.070625430356   111.37510439   301.07187460
 H      3   2   1     2.070877073225   111.75163987   180.25153798
 H      5   4   2     1.843790584905   114.81182227     3.70046596
 H      8   7   2     2.057610676244   119.72160773   359.48837669
 H     10   9   8     2.056869029114   120.22298929   183.75429645
 H     11  10   9     2.057492292461   119.63114204   178.76494144
 H     12  11  10     2.058828325386   118.40557904   179.75190701
 H     16  15  13     2.052407580785   121.25122609   357.40733596
 H     17  16  15     2.054621914207   120.11183264   180.81870084
 H     18  17  16     2.056162012576   119.96622544   180.19535966
 H     19  18  17     2.054644468161   120.12077408   178.57593392
 H     20  19  18     2.055838796531   119.62937797   179.30214783

---------------------
BASIS SET INFORMATION
---------------------
There are 3 groups of distinct atoms

 Group   1 Type H   : 5s1p contracted to 3s1p pattern {311/1}
 Group   2 Type C   : 11s6p2d1f contracted to 5s3p2d1f pattern {62111/411/11/1}
 Group   3 Type O   : 11s6p2d1f contracted to 5s3p2d1f pattern {62111/411/11/1}

Atom   0H    basis set group =>   1
Atom   1C    basis set group =>   2
Atom   2C    basis set group =>   2
Atom   3C    basis set group =>   2
Atom   4O    basis set group =>   3
Atom   5O    basis set group =>   3
Atom   6C    basis set group =>   2
Atom   7C    basis set group =>   2
Atom   8C    basis set group =>   2
Atom   9C    basis set group =>   2
Atom  10C    basis set group =>   2
Atom  11C    basis set group =>   2
Atom  12C    basis set group =>   2
Atom  13O    basis set group =>   3
Atom  14C    basis set group =>   2
Atom  15C    basis set group =>   2
Atom  16C    basis set group =>   2
Atom  17C    basis set group =>   2
Atom  18C    basis set group =>   2
Atom  19C    basis set group =>   2
Atom  20H    basis set group =>   1
Atom  21H    basis set group =>   1
Atom  22H    basis set group =>   1
Atom  23H    basis set group =>   1
Atom  24H    basis set group =>   1
Atom  25H    basis set group =>   1
Atom  26H    basis set group =>   1
Atom  27H    basis set group =>   1
Atom  28H    basis set group =>   1
Atom  29H    basis set group =>   1
Atom  30H    basis set group =>   1
Atom  31H    basis set group =>   1
Atom  32H    basis set group =>   1
---------------------------------
AUXILIARY/J BASIS SET INFORMATION
---------------------------------
There are 3 groups of distinct atoms

 Group   1 Type H   : 5s2p1d contracted to 3s1p1d pattern {311/2/1}
 Group   2 Type C   : 12s5p4d2f1g contracted to 6s4p3d1f1g pattern {711111/2111/211/2/1}
 Group   3 Type O   : 12s5p4d2f1g contracted to 6s4p3d1f1g pattern {711111/2111/211/2/1}

Atom   0H    basis set group =>   1
Atom   1C    basis set group =>   2
Atom   2C    basis set group =>   2
Atom   3C    basis set group =>   2
Atom   4O    basis set group =>   3
Atom   5O    basis set group =>   3
Atom   6C    basis set group =>   2
Atom   7C    basis set group =>   2
Atom   8C    basis set group =>   2
Atom   9C    basis set group =>   2
Atom  10C    basis set group =>   2
Atom  11C    basis set group =>   2
Atom  12C    basis set group =>   2
Atom  13O    basis set group =>   3
Atom  14C    basis set group =>   2
Atom  15C    basis set group =>   2
Atom  16C    basis set group =>   2
Atom  17C    basis set group =>   2
Atom  18C    basis set group =>   2
Atom  19C    basis set group =>   2
Atom  20H    basis set group =>   1
Atom  21H    basis set group =>   1
Atom  22H    basis set group =>   1
Atom  23H    basis set group =>   1
Atom  24H    basis set group =>   1
Atom  25H    basis set group =>   1
Atom  26H    basis set group =>   1
Atom  27H    basis set group =>   1
Atom  28H    basis set group =>   1
Atom  29H    basis set group =>   1
Atom  30H    basis set group =>   1
Atom  31H    basis set group =>   1
Atom  32H    basis set group =>   1
------------------------------------------------------------------------------
                           ORCA GTO INTEGRAL CALCULATION
                           -- RI-GTO INTEGRALS CHOSEN --
------------------------------------------------------------------------------
------------------------------------------------------------------------------
                   ___                                                        
                  /   \      - P O W E R E D   B Y -                         
                 /     \                                                     
                 |  |  |   _    _      __       _____    __    __             
                 |  |  |  | |  | |    /  \     |  _  \  |  |  /  |          
                  \  \/   | |  | |   /    \    | | | |  |  | /  /          
                 / \  \   | |__| |  /  /\  \   | |_| |  |  |/  /          
                |  |  |   |  __  | /  /__\  \  |    /   |      \           
                |  |  |   | |  | | |   __   |  |    \   |  |\   \          
                \     /   | |  | | |  |  |  |  | |\  \  |  | \   \       
                 \___/    |_|  |_| |__|  |__|  |_| \__\ |__|  \__/        
                                                                              
                      - O R C A' S   B I G   F R I E N D -                    
                                      &                                       
                       - I N T E G R A L  F E E D E R -                       
                                                                              
 v1 FN, 2020, v2 2021                                                         
------------------------------------------------------------------------------


Reading SHARK input file Dexketoprofen\Dexketoprofen_B3LYP_def2-TZVP\Dexketoprofen_B3LYP_def2-TZVP.orcainp.SHARKINP.tmp ... ok
----------------------
SHARK INTEGRAL PACKAGE
----------------------

Number of atoms                             ...     33
Number of basis functions                   ...    673
Number of shells                            ...    265
Maximum angular momentum                    ...      3
Integral batch strategy                     ... SHARK/LIBINT Hybrid
RI-J (if used) integral strategy            ... SPLIT-RIJ (Revised 2003 algorithm where possible)
Printlevel                                  ...      1
Contraction scheme used                     ... SEGMENTED contraction
Coulomb Range Separation                    ... NOT USED
Exchange Range Separation                   ... NOT USED
Finite Nucleus Model                        ... NOT USED
Auxiliary Coulomb fitting basis             ... AVAILABLE
   # of basis functions in Aux-J            ...   1085
   # of shells in Aux-J                     ...    355
   Maximum angular momentum in Aux-J        ...      4
Auxiliary J/K fitting basis                 ... NOT available
Auxiliary Correlation fitting basis         ... NOT available
Auxiliary 'external' fitting basis          ... NOT available
Integral threshold                          ...     2.500000e-11
Primitive cut-off                           ...     2.500000e-12
Primitive pair pre-selection threshold      ...     2.500000e-12

Calculating pre-screening integrals         ... done (  0.1 sec) Dimension = 265
Organizing shell pair data                  ... done (  0.1 sec)
Shell pair information
Total number of shell pairs                 ...     35245
Shell pairs after pre-screening             ...     25563
Total number of primitive shell pairs       ...    108340
Primitive shell pairs kept                  ...     53229
          la=0 lb=0:   6613 shell pairs
          la=1 lb=0:   7366 shell pairs
          la=1 lb=1:   2073 shell pairs
          la=2 lb=0:   3652 shell pairs
          la=2 lb=1:   2043 shell pairs
          la=2 lb=2:    521 shell pairs
          la=3 lb=0:   1721 shell pairs
          la=3 lb=1:    982 shell pairs
          la=3 lb=2:    473 shell pairs
          la=3 lb=3:    119 shell pairs

Calculating one electron integrals          ... done (  0.1 sec)
Calculating RI/J V-Matrix + Cholesky decomp.... done (  0.0 sec)
Calculating Nuclear repulsion               ... done (  0.0 sec) ENN=   1309.517151238816 Eh

SHARK setup successfully completed in   0.6 seconds

Maximum memory used throughout the entire GTOINT-calculation: 333.0 MB
-------------------------------------------------------------------------------
                                 ORCA SCF
-------------------------------------------------------------------------------

------------
SCF SETTINGS
------------
Hamiltonian:
 Density Functional     Method          .... DFT(GTOs)
 Exchange Functional    Exchange        .... B88
   X-Alpha parameter    XAlpha          ....  0.666667
   Becke's b parameter  XBeta           ....  0.004200
 Correlation Functional Correlation     .... LYP
 LDA part of GGA corr.  LDAOpt          .... VWN-5
 Gradients option       PostSCFGGA      .... off
 Hybrid DFT is turned on
   Fraction HF Exchange ScalHFX         ....  0.200000
   Scaling of DF-GGA-X  ScalDFX         ....  0.720000
   Scaling of DF-GGA-C  ScalDFC         ....  0.810000
   Scaling of DF-LDA-C  ScalLDAC        ....  1.000000
   Perturbative correction              ....  0.000000
   Density functional embedding theory  .... OFF
   NL short-range parameter             ....  4.800000
 RI-approximation to the Coulomb term is turned on
   Number of AuxJ basis functions       .... 1085
   RIJ-COSX (HFX calculated with COS-X)).... on


General Settings:
 Integral files         IntName         .... Dexketoprofen\Dexketoprofen_B3LYP_def2-TZVP\Dexketoprofen_B3LYP_def2-TZVP.orcainp
 Hartree-Fock type      HFTyp           .... RHF
 Total Charge           Charge          ....    0
 Multiplicity           Mult            ....    1
 Number of Electrons    NEL             ....  134
 Basis Dimension        Dim             ....  673
 Nuclear Repulsion      ENuc            ....   1309.5171512388 Eh

Convergence Acceleration:
 DIIS                   CNVDIIS         .... on
   Start iteration      DIISMaxIt       ....    12
   Startup error        DIISStart       ....  0.200000
   # of expansion vecs  DIISMaxEq       ....     5
   Bias factor          DIISBfac        ....   1.050
   Max. coefficient     DIISMaxC        ....  10.000
 Trust-Rad. Augm. Hess. CNVTRAH         .... auto
   Auto Start mean grad. ratio tolernc. ....  1.125000
   Auto Start start iteration           ....    20
   Auto Start num. interpolation iter.  ....    10
   Max. Number of Micro iterations      ....    16
   Max. Number of Macro iterations      .... Maxiter - #DIIS iter
   Number of Davidson start vectors     ....     2
   Converg. threshold I  (grad. norm)   ....   1.000e-05
   Converg. threshold II (energy diff.) ....   1.000e-08
   Grad. Scal. Fac. for Micro threshold ....   0.100
   Minimum threshold for Micro iter.    ....   0.010
   NR start threshold (gradient norm)   ....   0.001
   Initial trust radius                 ....   0.400
   Minimum AH scaling param. (alpha)    ....   1.000
   Maximum AH scaling param. (alpha)    .... 1000.000
   Orbital update algorithm             .... Taylor
   White noise on init. David. guess    .... on
   Maximum white noise                  ....   0.010
   Quad. conv. algorithm                .... NR
 SOSCF                  CNVSOSCF        .... on
   Start iteration      SOSCFMaxIt      ....   150
   Startup grad/error   SOSCFStart      ....  0.003300
 Level Shifting         CNVShift        .... on
   Level shift para.    LevelShift      ....    0.2500
   Turn off err/grad.   ShiftErr        ....    0.0010
 Zerner damping         CNVZerner       .... off
 Static damping         CNVDamp         .... on
   Fraction old density DampFac         ....    0.7000
   Max. Damping (<1)    DampMax         ....    0.9800
   Min. Damping (>=0)   DampMin         ....    0.0000
   Turn off err/grad.   DampErr         ....    0.1000
 Fernandez-Rico         CNVRico         .... off

SCF Procedure:
 Maximum # iterations   MaxIter         ....   125
 SCF integral mode      SCFMode         .... Direct
   Integral package                     .... SHARK and LIBINT hybrid scheme
 Reset frequency        DirectResetFreq ....    20
 Integral Threshold     Thresh          ....  2.500e-11 Eh
 Primitive CutOff       TCut            ....  2.500e-12 Eh

Convergence Tolerance:
 Convergence Check Mode ConvCheckMode   .... Total+1el-Energy
 Convergence forced     ConvForced      .... 0
 Energy Change          TolE            ....  1.000e-08 Eh
 1-El. energy change                    ....  1.000e-05 Eh
 Orbital Gradient       TolG            ....  1.000e-05
 Orbital Rotation angle TolX            ....  1.000e-05
 DIIS Error             TolErr          ....  5.000e-07


Diagonalization of the overlap matrix:
Smallest eigenvalue                        ... 6.989e-06
Time for diagonalization                   ...    0.028 sec
Threshold for overlap eigenvalues          ... 1.000e-08
Number of eigenvalues below threshold      ... 0
Time for construction of square roots      ...    0.020 sec
Total time needed                          ...    0.049 sec

Time for model grid setup =    0.413 sec

------------------------------
INITIAL GUESS: MODEL POTENTIAL
------------------------------
Loading Hartree-Fock densities                     ... done
Calculating cut-offs                               ... done
Initializing the effective Hamiltonian             ... done
Setting up the integral package (SHARK)            ... done
Starting the Coulomb interaction                   ... done (   0.8 sec)
Reading the grid                                   ... done
Mapping shells                                     ... done
Starting the XC term evaluation                    ... done (   0.8 sec)
  promolecular density results
     # of electrons  =    133.996418149
     EX              =   -110.971893114
     EC              =     -4.556026615
     EX+EC           =   -115.527919729
Transforming the Hamiltonian                       ... done (   0.0 sec)
Diagonalizing the Hamiltonian                      ... done (   0.0 sec)
Back transforming the eigenvectors                 ... done (   0.0 sec)
Now organizing SCF variables                       ... done
                      ------------------
                      INITIAL GUESS DONE (   2.0 sec)
                      ------------------
-------------------
DFT GRID GENERATION
-------------------

General Integration Accuracy     IntAcc      ... 4.388
Radial Grid Type                 RadialGrid  ... OptM3 with GC (2021)
Angular Grid (max. ang.)         AngularGrid ... 4 (Lebedev-302)
Angular grid pruning method      GridPruning ... 4 (adaptive)
Weight generation scheme         WeightScheme... Becke
Basis function cutoff            BFCut       ... 1.0000e-11
Integration weight cutoff        WCut        ... 1.0000e-14
Angular grids for H and He will be reduced by one unit
Partially contracted basis set               ... off
Rotationally invariant grid construction     ... off

Total number of grid points                  ...   158444
Total number of batches                      ...     2492
Average number of points per batch           ...       63
Average number of grid points per atom       ...     4801
Time for grid setup =    1.323 sec

--------------------
COSX GRID GENERATION
--------------------

GRIDX 1
-------
General Integration Accuracy     IntAcc      ... 3.816
Radial Grid Type                 RadialGrid  ... OptM3 with GC (2021)
Angular Grid (max. ang.)         AngularGrid ... 1 (Lebedev-50)
Angular grid pruning method      GridPruning ... 4 (adaptive)
Weight generation scheme         WeightScheme... Becke
Basis function cutoff            BFCut       ... 1.0000e-11
Integration weight cutoff        WCut        ... 1.0000e-14
Angular grids for H and He will be reduced by one unit
Partially contracted basis set               ... on
Rotationally invariant grid construction     ... off

Total number of grid points                  ...    20162
Total number of batches                      ...      326
Average number of points per batch           ...       61
Average number of grid points per atom       ...      611
UseSFitting                                  ... on

GRIDX 2
-------
General Integration Accuracy     IntAcc      ... 4.020
Radial Grid Type                 RadialGrid  ... OptM3 with GC (2021)
Angular Grid (max. ang.)         AngularGrid ... 2 (Lebedev-110)
Angular grid pruning method      GridPruning ... 4 (adaptive)
Weight generation scheme         WeightScheme... Becke
Basis function cutoff            BFCut       ... 1.0000e-11
Integration weight cutoff        WCut        ... 1.0000e-14
Angular grids for H and He will be reduced by one unit
Partially contracted basis set               ... on
Rotationally invariant grid construction     ... off

Total number of grid points                  ...    43932
Total number of batches                      ...      703
Average number of points per batch           ...       62
Average number of grid points per atom       ...     1331
UseSFitting                                  ... on

GRIDX 3
-------
General Integration Accuracy     IntAcc      ... 4.338
Radial Grid Type                 RadialGrid  ... OptM3 with GC (2021)
Angular Grid (max. ang.)         AngularGrid ... 3 (Lebedev-194)
Angular grid pruning method      GridPruning ... 4 (adaptive)
Weight generation scheme         WeightScheme... Becke
Basis function cutoff            BFCut       ... 1.0000e-11
Integration weight cutoff        WCut        ... 1.0000e-14
Angular grids for H and He will be reduced by one unit
Partially contracted basis set               ... on
Rotationally invariant grid construction     ... off

Total number of grid points                  ...    96202
Total number of batches                      ...     1519
Average number of points per batch           ...       63
Average number of grid points per atom       ...     2915
UseSFitting                                  ... on

Time for X-Grid setup             =    2.384 sec


--------------------
CPCM SOLVATION MODEL
--------------------
CPCM parameters:
  Epsilon                                         ...      80.4000
  Refrac                                          ...       1.3300
  Rsolv                                           ...       1.3000
  Surface type                                    ... GAUSSIAN VDW
  Epsilon function type                           ...         CPCM
Radii:
 Radius for H  used is    2.4944 Bohr (=   1.3200 Ang.)
 Radius for C  used is    3.8550 Bohr (=   2.0400 Ang.)
 Radius for O  used is    3.4469 Bohr (=   1.8240 Ang.)
Calculating surface                               ...        done! (  0.0s)
GEPOL surface points                              ...         1786
GEPOL Volume                                      ...    2086.5295
GEPOL Surface-area                                ...    1082.8958
Calculating surface distance matrix               ...        done! (  0.0s)
Performing Cholesky decomposition & store         ...        done! (  0.0s)
Overall time for CPCM initialization              ...                 0.1s
--------------
SCF ITERATIONS
--------------
ITER       Energy         Delta-E        Max-DP      RMS-DP      [F,P]     Damp
               ***  Starting incremental Fock matrix formation  ***
  0   -843.1422157068   0.000000000000 0.23339819  0.00108356  0.2938036 0.7000
  1   -843.3903488847  -0.248133177949 0.19860600  0.00088269  0.1107972 0.7000
                               ***Turning on DIIS***
  2   -843.4845714907  -0.094222605962 0.20232425  0.00129507  0.0340758 0.0000
  3   -843.6409388862  -0.156367395491 0.18774496  0.00072363  0.0536794 0.0000
  4   -843.6705153775  -0.029576491255 0.03743025  0.00021767  0.0196473 0.0000
  5   -843.6729430261  -0.002427648694 0.01718255  0.00009916  0.0072509 0.0000
                      *** Initiating the SOSCF procedure ***
                           *** Shutting down DIIS ***
                      *** Re-Reading the Fockian *** 
                      *** Removing any level shift *** 
ITER      Energy       Delta-E        Grad      Rot      Max-DP    RMS-DP
  6   -843.67308694  -0.0001439105  0.000213  0.000213  0.003730  0.000030
               *** Restarting incremental Fock matrix formation ***
  7   -843.67306108   0.0000258522  0.000127  0.000415  0.002880  0.000036
  8   -843.67305968   0.0000014072  0.000262  0.000336  0.000447  0.000006
  9   -843.67306301  -0.0000033293  0.000036  0.000090  0.000263  0.000004
 10   -843.67306294   0.0000000640  0.000057  0.000060  0.000219  0.000001
 11   -843.67306305  -0.0000001119  0.000005  0.000011  0.000149  0.000001
 12   -843.67306306  -0.0000000056  0.000005  0.000008  0.000113  0.000001
                  ***Gradient check signals convergence***
              ***Rediagonalizing the Fockian in SOSCF/NRSCF***

               *****************************************************
               *                     SUCCESS                       *
               *           SCF CONVERGED AFTER  13 CYCLES          *
               *****************************************************

Old exchange energy                            =    -22.520176474 Eh
New exchange energy                            =    -22.520166377 Eh
Exchange energy change after final integration =      0.000010098 Eh
Total energy after final integration           =   -843.673052936 Eh
Final COS-X integration done in                =    62.975 sec

----------------
TOTAL SCF ENERGY
----------------

Total Energy       :         -843.67305294 Eh          -22957.51091 eV

Components:
Nuclear Repulsion  :         1309.51715124 Eh           35633.77327 eV
Electronic Energy  :        -2153.19020418 Eh          -58591.28418 eV
One Electron Energy:        -3745.18676002 Eh         -101911.71283 eV
Two Electron Energy:         1591.99655585 Eh           43320.42865 eV
Max COSX asymmetry :            0.00000155 Eh               0.00004 eV
CPCM Dielectric    :           -0.03005786 Eh              -0.81792 eV

Virial components:
Potential Energy   :        -1683.22287709 Eh          -45802.82306 eV
Kinetic Energy     :          839.54982416 Eh           22845.31215 eV
Virial Ratio       :            2.00491124


DFT components:
N(Alpha)           :       67.000068532924 electrons
N(Beta)            :       67.000068532924 electrons
N(Total)           :      134.000137065849 electrons
E(X)               :      -89.527894072768 Eh       
E(C)               :       -5.376463251994 Eh       
E(XC)              :      -94.904357324761 Eh       
DFET-embed. en.    :        0.000000000000 Eh       
CPCM Solvation Model Properties:
Surface-charge          :           -0.03158207
Charge-correction       :            0.00008554 Eh               0.00233 eV
Free-energy (cav+disp)  :  This term is not implemented in the current solvation scheme

---------------
SCF CONVERGENCE
---------------

  Last Energy change         ...    2.5916e-08  Tolerance :   1.0000e-08
  Last MAX-Density change    ...    1.9984e-15  Tolerance :   1.0000e-07
  Last RMS-Density change    ...    1.2713e-17  Tolerance :   5.0000e-09
  Last Orbital Gradient      ...    1.2009e-06  Tolerance :   1.0000e-05
  Last Orbital Rotation      ...    4.1781e-06  Tolerance :   1.0000e-05

             **** THE GBW FILE WAS UPDATED (Dexketoprofen\Dexketoprofen_B3LYP_def2-TZVP\Dexketoprofen_B3LYP_def2-TZVP.orcainp.gbw) ****
             **** DENSITY Dexketoprofen\Dexketoprofen_B3LYP_def2-TZVP\Dexketoprofen_B3LYP_def2-TZVP.orcainp.scfp WAS UPDATED ****
             **** ENERGY FILE WAS UPDATED (Dexketoprofen\Dexketoprofen_B3LYP_def2-TZVP\Dexketoprofen_B3LYP_def2-TZVP.orcainp.en.tmp) ****
             **** THE GBW FILE WAS UPDATED (Dexketoprofen\Dexketoprofen_B3LYP_def2-TZVP\Dexketoprofen_B3LYP_def2-TZVP.orcainp.gbw) ****
             **** DENSITY Dexketoprofen\Dexketoprofen_B3LYP_def2-TZVP\Dexketoprofen_B3LYP_def2-TZVP.orcainp.scfp WAS UPDATED ****
----------------
ORBITAL ENERGIES
----------------

  NO   OCC          E(Eh)            E(eV) 
   0   2.0000     -19.178682      -521.8785 
   1   2.0000     -19.125939      -520.4433 
   2   2.0000     -19.119624      -520.2714 
   3   2.0000     -10.319384      -280.8047 
   4   2.0000     -10.270430      -279.4726 
   5   2.0000     -10.204947      -277.6907 
   6   2.0000     -10.202089      -277.6130 
   7   2.0000     -10.195599      -277.4364 
   8   2.0000     -10.194079      -277.3950 
   9   2.0000     -10.192355      -277.3481 
  10   2.0000     -10.189661      -277.2748 
  11   2.0000     -10.187412      -277.2136 
  12   2.0000     -10.187323      -277.2112 
  13   2.0000     -10.185777      -277.1691 
  14   2.0000     -10.184835      -277.1435 
  15   2.0000     -10.184164      -277.1252 
  16   2.0000     -10.181462      -277.0517 
  17   2.0000     -10.181299      -277.0472 
  18   2.0000     -10.164456      -276.5889 
  19   2.0000      -1.104276       -30.0489 
  20   2.0000      -1.047152       -28.4945 
  21   2.0000      -1.024831       -27.8871 
  22   2.0000      -0.875276       -23.8175 
  23   2.0000      -0.865781       -23.5591 
  24   2.0000      -0.812328       -22.1046 
  25   2.0000      -0.779931       -21.2230 
  26   2.0000      -0.757679       -20.6175 
  27   2.0000      -0.753055       -20.4917 
  28   2.0000      -0.740734       -20.1564 
  29   2.0000      -0.665508       -18.1094 
  30   2.0000      -0.659753       -17.9528 
  31   2.0000      -0.625678       -17.0256 
  32   2.0000      -0.623966       -16.9790 
  33   2.0000      -0.612930       -16.6787 
  34   2.0000      -0.599344       -16.3090 
  35   2.0000      -0.563762       -15.3407 
  36   2.0000      -0.538736       -14.6597 
  37   2.0000      -0.512822       -13.9546 
  38   2.0000      -0.506185       -13.7740 
  39   2.0000      -0.485162       -13.2019 
  40   2.0000      -0.476783       -12.9739 
  41   2.0000      -0.469980       -12.7888 
  42   2.0000      -0.466363       -12.6904 
  43   2.0000      -0.456628       -12.4255 
  44   2.0000      -0.446865       -12.1598 
  45   2.0000      -0.440206       -11.9786 
  46   2.0000      -0.433976       -11.8091 
  47   2.0000      -0.430619       -11.7177 
  48   2.0000      -0.428692       -11.6653 
  49   2.0000      -0.415570       -11.3082 
  50   2.0000      -0.406290       -11.0557 
  51   2.0000      -0.396858       -10.7991 
  52   2.0000      -0.377911       -10.2835 
  53   2.0000      -0.373533       -10.1644 
  54   2.0000      -0.367856       -10.0099 
  55   2.0000      -0.362795        -9.8722 
  56   2.0000      -0.360577        -9.8118 
  57   2.0000      -0.357939        -9.7400 
  58   2.0000      -0.350379        -9.5343 
  59   2.0000      -0.345239        -9.3944 
  60   2.0000      -0.332423        -9.0457 
  61   2.0000      -0.299180        -8.1411 
  62   2.0000      -0.276461        -7.5229 
  63   2.0000      -0.271122        -7.3776 
  64   2.0000      -0.265208        -7.2167 
  65   2.0000      -0.262922        -7.1545 
  66   2.0000      -0.256988        -6.9930 
  67   0.0000      -0.078362        -2.1323 
  68   0.0000      -0.032227        -0.8769 
  69   0.0000      -0.029934        -0.8145 
  70   0.0000      -0.018163        -0.4942 
  71   0.0000      -0.012931        -0.3519 
  72   0.0000       0.031290         0.8514 
  73   0.0000       0.034356         0.9349 
  74   0.0000       0.059025         1.6062 
  75   0.0000       0.062998         1.7143 
  76   0.0000       0.069526         1.8919 
  77   0.0000       0.072393         1.9699 
  78   0.0000       0.089329         2.4308 
  79   0.0000       0.090847         2.4721 
  80   0.0000       0.097845         2.6625 
  81   0.0000       0.103800         2.8245 
  82   0.0000       0.110515         3.0073 
  83   0.0000       0.115696         3.1482 
  84   0.0000       0.122204         3.3253 
  85   0.0000       0.126165         3.4331 
  86   0.0000       0.131809         3.5867 
  87   0.0000       0.139103         3.7852 
  88   0.0000       0.140669         3.8278 
  89   0.0000       0.152275         4.1436 
  90   0.0000       0.155997         4.2449 
  91   0.0000       0.163276         4.4430 
  92   0.0000       0.167658         4.5622 
  93   0.0000       0.176587         4.8052 
  94   0.0000       0.187488         5.1018 
  95   0.0000       0.193584         5.2677 
  96   0.0000       0.197692         5.3795 
  97   0.0000       0.202287         5.5045 
  98   0.0000       0.210786         5.7358 
  99   0.0000       0.212425         5.7804 
 100   0.0000       0.218003         5.9322 
 101   0.0000       0.219186         5.9644 
 102   0.0000       0.226418         6.1612 
 103   0.0000       0.229672         6.2497 
 104   0.0000       0.234489         6.3808 
 105   0.0000       0.237310         6.4575 
 106   0.0000       0.239106         6.5064 
 107   0.0000       0.246802         6.7158 
 108   0.0000       0.248146         6.7524 
 109   0.0000       0.252027         6.8580 
 110   0.0000       0.257409         7.0044 
 111   0.0000       0.263086         7.1589 
 112   0.0000       0.268524         7.3069 
 113   0.0000       0.273796         7.4504 
 114   0.0000       0.281157         7.6507 
 115   0.0000       0.285428         7.7669 
 116   0.0000       0.288282         7.8446 
 117   0.0000       0.296810         8.0766 
 118   0.0000       0.301015         8.1910 
 119   0.0000       0.306009         8.3269 
 120   0.0000       0.313419         8.5286 
 121   0.0000       0.315053         8.5730 
 122   0.0000       0.322209         8.7678 
 123   0.0000       0.324620         8.8334 
 124   0.0000       0.336556         9.1581 
 125   0.0000       0.344756         9.3813 
 126   0.0000       0.348814         9.4917 
 127   0.0000       0.353883         9.6296 
 128   0.0000       0.356315         9.6958 
 129   0.0000       0.364295         9.9130 
 130   0.0000       0.372126        10.1261 
 131   0.0000       0.373659        10.1678 
 132   0.0000       0.380993        10.3673 
 133   0.0000       0.382733        10.4147 
 134   0.0000       0.390214        10.6183 
 135   0.0000       0.395092        10.7510 
 136   0.0000       0.395964        10.7747 
 137   0.0000       0.400292        10.8925 
 138   0.0000       0.405555        11.0357 
 139   0.0000       0.409075        11.1315 
 140   0.0000       0.415400        11.3036 
 141   0.0000       0.421331        11.4650 
 142   0.0000       0.422989        11.5101 
 143   0.0000       0.430345        11.7103 
 144   0.0000       0.431075        11.7302 
 145   0.0000       0.435013        11.8373 
 146   0.0000       0.438965        11.9449 
 147   0.0000       0.441647        12.0178 
 148   0.0000       0.451867        12.2959 
 149   0.0000       0.462686        12.5903 
 150   0.0000       0.466255        12.6875 
 151   0.0000       0.470008        12.7896 
 152   0.0000       0.473947        12.8967 
 153   0.0000       0.482219        13.1218 
 154   0.0000       0.487583        13.2678 
 155   0.0000       0.489168        13.3109 
 156   0.0000       0.493616        13.4320 
 157   0.0000       0.499429        13.5902 
 158   0.0000       0.502672        13.6784 
 159   0.0000       0.507386        13.8067 
 160   0.0000       0.512045        13.9335 
 161   0.0000       0.519946        14.1485 
 162   0.0000       0.525830        14.3086 
 163   0.0000       0.526012        14.3135 
 164   0.0000       0.534664        14.5490 
 165   0.0000       0.545109        14.8332 
 166   0.0000       0.551518        15.0076 
 167   0.0000       0.568701        15.4752 
 168   0.0000       0.577291        15.7089 
 169   0.0000       0.581249        15.8166 
 170   0.0000       0.598496        16.2859 
 171   0.0000       0.599229        16.3058 
 172   0.0000       0.605863        16.4864 
 173   0.0000       0.623279        16.9603 
 174   0.0000       0.627891        17.0858 
 175   0.0000       0.634338        17.2612 
 176   0.0000       0.638655        17.3787 
 177   0.0000       0.642490        17.4830 
 178   0.0000       0.651132        17.7182 
 179   0.0000       0.653058        17.7706 
 180   0.0000       0.659320        17.9410 
 181   0.0000       0.667201        18.1555 
 182   0.0000       0.667980        18.1767 
 183   0.0000       0.675965        18.3940 
 184   0.0000       0.681436        18.5428 
 185   0.0000       0.687831        18.7168 
 186   0.0000       0.691274        18.8105 
 187   0.0000       0.696586        18.9551 
 188   0.0000       0.711455        19.3597 
 189   0.0000       0.715332        19.4652 
 190   0.0000       0.718495        19.5512 
 191   0.0000       0.734049        19.9745 
 192   0.0000       0.740384        20.1469 
 193   0.0000       0.745227        20.2787 
 194   0.0000       0.754285        20.5251 
 195   0.0000       0.758343        20.6356 
 196   0.0000       0.770903        20.9773 
 197   0.0000       0.778311        21.1789 
 198   0.0000       0.785141        21.3648 
 199   0.0000       0.795985        21.6599 
 200   0.0000       0.800262        21.7762 
 201   0.0000       0.807967        21.9859 
 202   0.0000       0.817274        22.2392 
 203   0.0000       0.821957        22.3666 
 204   0.0000       0.826593        22.4927 
 205   0.0000       0.835595        22.7377 
 206   0.0000       0.844360        22.9762 
 207   0.0000       0.863059        23.4850 
 208   0.0000       0.868235        23.6259 
 209   0.0000       0.877531        23.8788 
 210   0.0000       0.881406        23.9843 
 211   0.0000       0.885097        24.0847 
 212   0.0000       0.893711        24.3191 
 213   0.0000       0.898238        24.4423 
 214   0.0000       0.904484        24.6123 
 215   0.0000       0.913938        24.8695 
 216   0.0000       0.925919        25.1955 
 217   0.0000       0.936168        25.4744 
 218   0.0000       0.943072        25.6623 
 219   0.0000       0.945080        25.7169 
 220   0.0000       0.960392        26.1336 
 221   0.0000       0.974937        26.5294 
 222   0.0000       0.986373        26.8406 
 223   0.0000       0.991490        26.9798 
 224   0.0000       0.996243        27.1091 
 225   0.0000       1.001286        27.2464 
 226   0.0000       1.008541        27.4438 
 227   0.0000       1.024215        27.8703 
 228   0.0000       1.027770        27.9670 
 229   0.0000       1.042817        28.3765 
 230   0.0000       1.048132        28.5211 
 231   0.0000       1.066607        29.0239 
 232   0.0000       1.075185        29.2573 
 233   0.0000       1.079879        29.3850 
 234   0.0000       1.088556        29.6211 
 235   0.0000       1.098391        29.8888 
 236   0.0000       1.108214        30.1560 
 237   0.0000       1.129183        30.7266 
 238   0.0000       1.141934        31.0736 
 239   0.0000       1.149839        31.2887 
 240   0.0000       1.158057        31.5123 
 241   0.0000       1.165364        31.7112 
 242   0.0000       1.185890        32.2697 
 243   0.0000       1.191121        32.4121 
 244   0.0000       1.201234        32.6873 
 245   0.0000       1.203023        32.7359 
 246   0.0000       1.211570        32.9685 
 247   0.0000       1.215784        33.0832 
 248   0.0000       1.234344        33.5882 
 249   0.0000       1.239156        33.7191 
 250   0.0000       1.244118        33.8542 
 251   0.0000       1.250390        34.0248 
 252   0.0000       1.257377        34.2150 
 253   0.0000       1.263830        34.3906 
 254   0.0000       1.271242        34.5923 
 255   0.0000       1.285891        34.9909 
 256   0.0000       1.298482        35.3335 
 257   0.0000       1.304604        35.5001 
 258   0.0000       1.308293        35.6005 
 259   0.0000       1.316363        35.8201 
 260   0.0000       1.323133        36.0043 
 261   0.0000       1.337435        36.3935 
 262   0.0000       1.352003        36.7899 
 263   0.0000       1.356197        36.9040 
 264   0.0000       1.370399        37.2905 
 265   0.0000       1.383921        37.6584 
 266   0.0000       1.396520        38.0012 
 267   0.0000       1.401623        38.1401 
 268   0.0000       1.411402        38.4062 
 269   0.0000       1.416155        38.5355 
 270   0.0000       1.419637        38.6303 
 271   0.0000       1.437543        39.1175 
 272   0.0000       1.446048        39.3490 
 273   0.0000       1.454829        39.5879 
 274   0.0000       1.460357        39.7383 
 275   0.0000       1.470923        40.0259 
 276   0.0000       1.480921        40.2979 
 277   0.0000       1.486874        40.4599 
 278   0.0000       1.491067        40.5740 
 279   0.0000       1.501183        40.8493 
 280   0.0000       1.513565        41.1862 
 281   0.0000       1.527174        41.5565 
 282   0.0000       1.540140        41.9093 
 283   0.0000       1.542252        41.9668 
 284   0.0000       1.556222        42.3470 
 285   0.0000       1.563695        42.5503 
 286   0.0000       1.567871        42.6639 
 287   0.0000       1.576002        42.8852 
 288   0.0000       1.579678        42.9852 
 289   0.0000       1.598359        43.4936 
 290   0.0000       1.605613        43.6909 
 291   0.0000       1.612495        43.8782 
 292   0.0000       1.617216        44.0067 
 293   0.0000       1.628153        44.3043 
 294   0.0000       1.633896        44.4606 
 295   0.0000       1.635640        44.5080 
 296   0.0000       1.640819        44.6490 
 297   0.0000       1.644309        44.7439 
 298   0.0000       1.659244        45.1503 
 299   0.0000       1.665391        45.3176 
 300   0.0000       1.671562        45.4855 
 301   0.0000       1.678995        45.6878 
 302   0.0000       1.686107        45.8813 
 303   0.0000       1.695314        46.1318 
 304   0.0000       1.703451        46.3533 
 305   0.0000       1.705953        46.4213 
 306   0.0000       1.710334        46.5406 
 307   0.0000       1.724391        46.9231 
 308   0.0000       1.733452        47.1696 
 309   0.0000       1.735933        47.2371 
 310   0.0000       1.766677        48.0737 
 311   0.0000       1.782041        48.4918 
 312   0.0000       1.784212        48.5509 
 313   0.0000       1.793006        48.7902 
 314   0.0000       1.806311        49.1522 
 315   0.0000       1.815320        49.3974 
 316   0.0000       1.823989        49.6333 
 317   0.0000       1.838414        50.0258 
 318   0.0000       1.844518        50.1919 
 319   0.0000       1.846556        50.2473 
 320   0.0000       1.854951        50.4758 
 321   0.0000       1.873730        50.9868 
 322   0.0000       1.897019        51.6205 
 323   0.0000       1.914332        52.0916 
 324   0.0000       1.920167        52.2504 
 325   0.0000       1.924050        52.3561 
 326   0.0000       1.939860        52.7863 
 327   0.0000       1.948628        53.0249 
 328   0.0000       1.963541        53.4307 
 329   0.0000       1.974742        53.7355 
 330   0.0000       2.000394        54.4335 
 331   0.0000       2.005860        54.5822 
 332   0.0000       2.021670        55.0125 
 333   0.0000       2.027125        55.1609 
 334   0.0000       2.031676        55.2847 
 335   0.0000       2.048959        55.7550 
 336   0.0000       2.064406        56.1753 
 337   0.0000       2.074359        56.4462 
 338   0.0000       2.076270        56.4982 
 339   0.0000       2.077541        56.5328 
 340   0.0000       2.087731        56.8101 
 341   0.0000       2.100760        57.1646 
 342   0.0000       2.113569        57.5131 
 343   0.0000       2.129834        57.9557 
 344   0.0000       2.133884        58.0659 
 345   0.0000       2.138555        58.1930 
 346   0.0000       2.142501        58.3004 
 347   0.0000       2.154325        58.6222 
 348   0.0000       2.167717        58.9866 
 349   0.0000       2.179450        59.3058 
 350   0.0000       2.187293        59.5193 
 351   0.0000       2.200457        59.8775 
 352   0.0000       2.208067        60.0846 
 353   0.0000       2.209696        60.1289 
 354   0.0000       2.213668        60.2370 
 355   0.0000       2.226627        60.5896 
 356   0.0000       2.238137        60.9028 
 357   0.0000       2.244063        61.0641 
 358   0.0000       2.261392        61.5356 
 359   0.0000       2.273495        61.8649 
 360   0.0000       2.273664        61.8695 
 361   0.0000       2.290844        62.3370 
 362   0.0000       2.309983        62.8578 
 363   0.0000       2.316117        63.0247 
 364   0.0000       2.333017        63.4846 
 365   0.0000       2.346084        63.8402 
 366   0.0000       2.364140        64.3315 
 367   0.0000       2.377365        64.6914 
 368   0.0000       2.392822        65.1120 
 369   0.0000       2.406736        65.4906 
 370   0.0000       2.409659        65.5702 
 371   0.0000       2.425751        66.0080 
 372   0.0000       2.427808        66.0640 
 373   0.0000       2.445792        66.5534 
 374   0.0000       2.456380        66.8415 
 375   0.0000       2.472629        67.2837 
 376   0.0000       2.475819        67.3705 
 377   0.0000       2.483509        67.5797 
 378   0.0000       2.496581        67.9354 
 379   0.0000       2.512380        68.3653 
 380   0.0000       2.531341        68.8813 
 381   0.0000       2.541938        69.1697 
 382   0.0000       2.554198        69.5033 
 383   0.0000       2.571173        69.9652 
 384   0.0000       2.572203        69.9932 
 385   0.0000       2.578144        70.1549 
 386   0.0000       2.591382        70.5151 
 387   0.0000       2.596158        70.6451 
 388   0.0000       2.609453        71.0068 
 389   0.0000       2.613673        71.1216 
 390   0.0000       2.617093        71.2147 
 391   0.0000       2.622808        71.3702 
 392   0.0000       2.632010        71.6206 
 393   0.0000       2.635027        71.7027 
 394   0.0000       2.650848        72.1332 
 395   0.0000       2.656726        72.2932 
 396   0.0000       2.660263        72.3894 
 397   0.0000       2.667648        72.5904 
 398   0.0000       2.669411        72.6384 
 399   0.0000       2.679452        72.9116 
 400   0.0000       2.685082        73.0648 
 401   0.0000       2.703118        73.5556 
 402   0.0000       2.703851        73.5755 
 403   0.0000       2.716020        73.9067 
 404   0.0000       2.719904        74.0124 
 405   0.0000       2.734886        74.4200 
 406   0.0000       2.745477        74.7082 
 407   0.0000       2.746563        74.7378 
 408   0.0000       2.755661        74.9854 
 409   0.0000       2.763363        75.1949 
 410   0.0000       2.768899        75.3456 
 411   0.0000       2.772575        75.4456 
 412   0.0000       2.778874        75.6170 
 413   0.0000       2.786702        75.8300 
 414   0.0000       2.794745        76.0489 
 415   0.0000       2.801452        76.2314 
 416   0.0000       2.808684        76.4282 
 417   0.0000       2.818623        76.6986 
 418   0.0000       2.824658        76.8628 
 419   0.0000       2.833302        77.0981 
 420   0.0000       2.837472        77.2115 
 421   0.0000       2.842311        77.3432 
 422   0.0000       2.846323        77.4524 
 423   0.0000       2.854551        77.6763 
 424   0.0000       2.856637        77.7331 
 425   0.0000       2.864976        77.9600 
 426   0.0000       2.880215        78.3746 
 427   0.0000       2.883421        78.4619 
 428   0.0000       2.893969        78.7489 
 429   0.0000       2.895136        78.7807 
 430   0.0000       2.917024        79.3763 
 431   0.0000       2.930482        79.7425 
 432   0.0000       2.944569        80.1258 
 433   0.0000       2.946489        80.1780 
 434   0.0000       2.953376        80.3654 
 435   0.0000       2.972807        80.8942 
 436   0.0000       2.989926        81.3600 
 437   0.0000       3.001433        81.6731 
 438   0.0000       3.007531        81.8391 
 439   0.0000       3.010215        81.9121 
 440   0.0000       3.020840        82.2012 
 441   0.0000       3.032111        82.5079 
 442   0.0000       3.037562        82.6563 
 443   0.0000       3.047678        82.9315 
 444   0.0000       3.053267        83.0836 
 445   0.0000       3.061029        83.2948 
 446   0.0000       3.065109        83.4059 
 447   0.0000       3.068336        83.4937 
 448   0.0000       3.083914        83.9176 
 449   0.0000       3.095155        84.2235 
 450   0.0000       3.107607        84.5623 
 451   0.0000       3.110406        84.6384 
 452   0.0000       3.121483        84.9399 
 453   0.0000       3.127849        85.1131 
 454   0.0000       3.130993        85.1986 
 455   0.0000       3.134312        85.2890 
 456   0.0000       3.141939        85.4965 
 457   0.0000       3.151014        85.7434 
 458   0.0000       3.158170        85.9382 
 459   0.0000       3.169782        86.2541 
 460   0.0000       3.174957        86.3950 
 461   0.0000       3.183010        86.6141 
 462   0.0000       3.191363        86.8414 
 463   0.0000       3.195872        86.9641 
 464   0.0000       3.205638        87.2298 
 465   0.0000       3.210889        87.3727 
 466   0.0000       3.215110        87.4876 
 467   0.0000       3.223129        87.7058 
 468   0.0000       3.231801        87.9418 
 469   0.0000       3.249682        88.4283 
 470   0.0000       3.253148        88.5226 
 471   0.0000       3.261773        88.7573 
 472   0.0000       3.266039        88.8735 
 473   0.0000       3.276964        89.1707 
 474   0.0000       3.279795        89.2478 
 475   0.0000       3.284068        89.3640 
 476   0.0000       3.293133        89.6107 
[...]
      pz      :     1.038884  p :     3.150858
      px      :     1.038721
      py      :     1.073253
      dz2     :     0.083916  d :     0.252684
      dxz     :     0.043426
      dyz     :     0.017357
      dx2y2   :     0.039283
      dxy     :     0.068702
      f0      :     0.002577  f :     0.024934
      f+1     :     0.005498
      f-1     :     0.002565
      f+2     :     0.004310
      f-2     :     0.003724
      f+3     :     0.003141
      f-3     :     0.003119
  3 C s       :     2.768940  s :     2.768940
      pz      :     0.756075  p :     2.624054
      px      :     0.912548
      py      :     0.955431
      dz2     :     0.125633  d :     0.922214
      dxz     :     0.143311
      dyz     :     0.146939
      dx2y2   :     0.223931
      dxy     :     0.282400
      f0      :     0.010013  f :     0.152515
      f+1     :     0.013656
      f-1     :     0.016096
      f+2     :     0.023322
      f-2     :     0.022026
      f+3     :     0.045404
      f-3     :     0.021998
  4 O s       :     3.329671  s :     3.329671
      pz      :     1.563341  p :     4.490874
      px      :     1.542087
      py      :     1.385445
      dz2     :     0.006918  d :     0.068501
      dxz     :     0.012804
      dyz     :     0.010260
      dx2y2   :     0.026571
      dxy     :     0.011949
      f0      :     0.000669  f :     0.004798
      f+1     :     0.000518
      f-1     :     0.000166
      f+2     :     0.000721
      f-2     :     0.000737
      f+3     :     0.001011
      f-3     :     0.000976
  5 O s       :     3.397060  s :     3.397060
      pz      :     1.375528  p :     4.460852
      px      :     1.611919
      py      :     1.473406
      dz2     :     0.007760  d :     0.065023
      dxz     :     0.003627
      dyz     :     0.019445
      dx2y2   :     0.018989
      dxy     :     0.015202
      f0      :     0.000532  f :     0.006165
      f+1     :     0.000015
      f-1     :     0.000982
      f+2     :     0.001455
      f-2     :     0.000727
      f+3     :     0.001221
      f-3     :     0.001233
  6 C s       :     2.707818  s :     2.707818
      pz      :     0.940705  p :     2.844309
      px      :     0.851440
      py      :     1.052164
      dz2     :     0.127128  d :     0.508937
      dxz     :     0.068441
      dyz     :     0.146207
      dx2y2   :     0.082049
      dxy     :     0.085111
      f0      :     0.006518  f :     0.056450
      f+1     :     0.004762
      f-1     :     0.017917
      f+2     :     0.006579
      f-2     :     0.008778
      f+3     :     0.004892
      f-3     :     0.007004
  7 C s       :     2.751854  s :     2.751854
      pz      :     1.001193  p :     2.884288
      px      :     0.880299
      py      :     1.002795
      dz2     :     0.090952  d :     0.379481
      dxz     :     0.056753
      dyz     :     0.132632
      dx2y2   :     0.051206
      dxy     :     0.047937
      f0      :     0.007121  f :     0.042409
      f+1     :     0.005254
      f-1     :     0.011390
      f+2     :     0.005270
      f-2     :     0.005050
      f+3     :     0.004155
      f-3     :     0.004168
  8 C s       :     2.708183  s :     2.708183
      pz      :     1.004357  p :     2.866951
      px      :     0.882178
      py      :     0.980416
      dz2     :     0.112930  d :     0.484260
      dxz     :     0.071837
      dyz     :     0.151127
      dx2y2   :     0.081618
      dxy     :     0.066748
      f0      :     0.007268  f :     0.054889
      f+1     :     0.005602
      f-1     :     0.015625
      f+2     :     0.006245
      f-2     :     0.008232
      f+3     :     0.005167
      f-3     :     0.006749
  9 C s       :     2.759091  s :     2.759091
      pz      :     0.980362  p :     2.902411
      px      :     0.874544
      py      :     1.047505
      dz2     :     0.092707  d :     0.380868
      dxz     :     0.031446
      dyz     :     0.099798
      dx2y2   :     0.076596
      dxy     :     0.080321
      f0      :     0.003083  f :     0.043226
      f+1     :     0.002139
      f-1     :     0.012887
      f+2     :     0.006031
      f-2     :     0.007498
      f+3     :     0.004775
      f-3     :     0.006814
 10 C s       :     2.764578  s :     2.764578
      pz      :     1.023500  p :     2.936746
      px      :     0.897576
      py      :     1.015669
      dz2     :     0.091870  d :     0.382069
      dxz     :     0.054732
      dyz     :     0.137487
      dx2y2   :     0.051234
      dxy     :     0.046746
      f0      :     0.007036  f :     0.043303
      f+1     :     0.005365
      f-1     :     0.012093
      f+2     :     0.005207
      f-2     :     0.005115
      f+3     :     0.004132
      f-3     :     0.004355
 11 C s       :     2.758208  s :     2.758208
      pz      :     1.017961  p :     2.902246
      px      :     0.883254
      py      :     1.001031
      dz2     :     0.093310  d :     0.379933
      dxz     :     0.058785
      dyz     :     0.131050
      dx2y2   :     0.057743
      dxy     :     0.039045
      f0      :     0.006977  f :     0.042789
      f+1     :     0.005596
      f-1     :     0.011695
      f+2     :     0.005010
      f-2     :     0.005580
      f+3     :     0.003305
      f-3     :     0.004627
 12 C s       :     2.744242  s :     2.744242
      pz      :     0.808535  p :     2.642294
      px      :     0.870508
      py      :     0.963251
      dz2     :     0.116549  d :     0.739658
      dxz     :     0.128696
      dyz     :     0.152539
      dx2y2   :     0.147562
      dxy     :     0.194313
      f0      :     0.011192  f :     0.107899
      f+1     :     0.016508
      f-1     :     0.009433
      f+2     :     0.013936
      f-2     :     0.023025
      f+3     :     0.014101
      f-3     :     0.019704
 13 O s       :     3.397802  s :     3.397802
      pz      :     1.385279  p :     4.446676
      px      :     1.434962
      py      :     1.626435
      dz2     :     0.009838  d :     0.066530
      dxz     :     0.021849
      dyz     :     0.009559
      dx2y2   :     0.012155
      dxy     :     0.013130
      f0      :     0.000478  f :     0.005868
      f+1     :     0.001251
      f-1     :     0.000180
      f+2     :     0.001418
      f-2     :     0.001255
      f+3     :     0.000587
      f-3     :     0.000700
 14 C s       :     2.709155  s :     2.709155
      pz      :     0.868642  p :     2.872586
      px      :     1.014297
      py      :     0.989647
      dz2     :     0.039868  d :     0.483692
      dxz     :     0.068936
      dyz     :     0.058937
      dx2y2   :     0.142355
      dxy     :     0.173596
      f0      :     0.003894  f :     0.054787
      f+1     :     0.004624
      f-1     :     0.004374
      f+2     :     0.007119
      f-2     :     0.005385
      f+3     :     0.010622
      f-3     :     0.018769
 15 C s       :     2.760268  s :     2.760268
      pz      :     0.865030  p :     2.906581
      px      :     1.029206
      py      :     1.012346
      dz2     :     0.029715  d :     0.381832
      dxz     :     0.065811
      dyz     :     0.027290
      dx2y2   :     0.127856
      dxy     :     0.131161
      f0      :     0.002989  f :     0.042788
      f+1     :     0.004276
      f-1     :     0.003443
      f+2     :     0.005056
      f-2     :     0.004558
      f+3     :     0.008542
      f-3     :     0.013924
 16 C s       :     2.766515  s :     2.766515
      pz      :     0.886563  p :     2.944527
      px      :     0.991941
      py      :     1.066023
      dz2     :     0.025263  d :     0.380448
      dxz     :     0.017217
      dyz     :     0.072618
      dx2y2   :     0.159930
      dxy     :     0.105420
      f0      :     0.003226  f :     0.043014
      f+1     :     0.002751
      f-1     :     0.004711
      f+2     :     0.002032
      f-2     :     0.006922
      f+3     :     0.008683
      f-3     :     0.014689
 17 C s       :     2.769247  s :     2.769247
      pz      :     0.865111  p :     2.926248
      px      :     1.038185
      py      :     1.022952
      dz2     :     0.028030  d :     0.383832
      dxz     :     0.053627
      dyz     :     0.038843
      dx2y2   :     0.107816
      dxy     :     0.155516
      f0      :     0.003122  f :     0.043024
      f+1     :     0.004135
      f-1     :     0.003402
      f+2     :     0.006715
      f-2     :     0.002718
      f+3     :     0.008663
      f-3     :     0.014270
 18 C s       :     2.766447  s :     2.766447
      pz      :     0.887871  p :     2.943521
      px      :     1.048330
      py      :     1.007320
      dz2     :     0.029600  d :     0.380480
      dxz     :     0.061422
      dyz     :     0.025846
      dx2y2   :     0.128686
      dxy     :     0.134927
      f0      :     0.003054  f :     0.043060
      f+1     :     0.004233
      f-1     :     0.003513
      f+2     :     0.004766
      f-2     :     0.004529
      f+3     :     0.008615
      f-3     :     0.014351
 19 C s       :     2.760199  s :     2.760199
      pz      :     0.863360  p :     2.903861
      px      :     0.996153
      py      :     1.044347
      dz2     :     0.025368  d :     0.381039
      dxz     :     0.019423
      dyz     :     0.076922
      dx2y2   :     0.156276
      dxy     :     0.103050
      f0      :     0.003263  f :     0.042977
      f+1     :     0.002598
      f-1     :     0.004733
      f+2     :     0.002301
      f-2     :     0.007172
      f+3     :     0.008650
      f-3     :     0.014259
 20 H s       :     0.811236  s :     0.811236
      pz      :     0.032596  p :     0.061300
      px      :     0.015406
      py      :     0.013299
 21 H s       :     0.809692  s :     0.809692
      pz      :     0.012884  p :     0.061263
      px      :     0.025845
      py      :     0.022535
 22 H s       :     0.811369  s :     0.811369
      pz      :     0.013835  p :     0.061829
      px      :     0.015082
      py      :     0.032912
 23 H s       :     0.634804  s :     0.634804
      pz      :     0.042472  p :     0.149208
      px      :     0.030588
      py      :     0.076148
 24 H s       :     0.775026  s :     0.775026
      pz      :     0.017110  p :     0.060953
      px      :     0.014398
      py      :     0.029445
 25 H s       :     0.783898  s :     0.783898
      pz      :     0.033325  p :     0.060317
      px      :     0.016133
      py      :     0.010860
 26 H s       :     0.787003  s :     0.787003
      pz      :     0.016704  p :     0.059193
      px      :     0.014047
      py      :     0.028443
 27 H s       :     0.781471  s :     0.781471
      pz      :     0.015994  p :     0.059792
      px      :     0.012873
      py      :     0.030925
 28 H s       :     0.780374  s :     0.780374
      pz      :     0.013072  p :     0.060683
      px      :     0.015219
      py      :     0.032391
 29 H s       :     0.788389  s :     0.788389
      pz      :     0.013850  p :     0.059305
      px      :     0.034548
      py      :     0.010907
 30 H s       :     0.788600  s :     0.788600
      pz      :     0.012948  p :     0.059108
      px      :     0.019006
      py      :     0.027154
 31 H s       :     0.788691  s :     0.788691
      pz      :     0.013043  p :     0.059216
      px      :     0.014889
      py      :     0.031283
 32 H s       :     0.784731  s :     0.784731
      pz      :     0.013883  p :     0.060249
      px      :     0.035502
      py      :     0.010864


                      *****************************
                      * MAYER POPULATION ANALYSIS *
                      *****************************

  NA   - Mulliken gross atomic population
  ZA   - Total nuclear charge
  QA   - Mulliken gross atomic charge
  VA   - Mayer's total valence
  BVA  - Mayer's bonded valence
  FA   - Mayer's free valence

  ATOM       NA         ZA         QA         VA         BVA        FA
  0 H      0.8615     1.0000     0.1385     0.9675     0.9675    -0.0000
  1 C      6.0603     6.0000    -0.0603     3.6693     3.6693     0.0000
  2 C      6.3885     6.0000    -0.3885     3.9034     3.9034     0.0000
  3 C      5.6921     6.0000     0.3079     4.3223     4.3223     0.0000
  4 O      8.3764     8.0000    -0.3764     2.0917     2.0917    -0.0000
  5 O      8.3675     8.0000    -0.3675     2.1227     2.1227     0.0000
  6 C      5.8684     6.0000     0.1316     3.6596     3.6596    -0.0000
  7 C      6.3340     6.0000    -0.3340     3.9884     3.9884     0.0000
  8 C      5.8181     6.0000     0.1819     3.4744     3.4744     0.0000
  9 C      6.2017     6.0000    -0.2017     3.9358     3.9358     0.0000
 10 C      6.1343     6.0000    -0.1343     3.8585     3.8585     0.0000
 11 C      6.1820     6.0000    -0.1820     3.8715     3.8715     0.0000
 12 C      5.7746     6.0000     0.2254     3.9953     3.9953    -0.0000
 13 O      8.3801     8.0000    -0.3801     2.0893     2.0893    -0.0000
 14 C      5.8626     6.0000     0.1374     3.4886     3.4886    -0.0000
 15 C      6.2273     6.0000    -0.2273     3.9264     3.9264    -0.0000
 16 C      6.1317     6.0000    -0.1317     3.8537     3.8537    -0.0000
 17 C      6.1263     6.0000    -0.1263     3.8752     3.8752    -0.0000
 18 C      6.1323     6.0000    -0.1323     3.8625     3.8625    -0.0000
 19 C      6.2001     6.0000    -0.2001     3.9366     3.9366    -0.0000
 20 H      0.8685     1.0000     0.1315     0.9695     0.9695    -0.0000
 21 H      0.8679     1.0000     0.1321     0.9689     0.9689    -0.0000
 22 H      0.8713     1.0000     0.1287     0.9769     0.9769     0.0000
 23 H      0.6274     1.0000     0.3726     0.8774     0.8774     0.0000
 24 H      0.8342     1.0000     0.1658     0.9638     0.9638    -0.0000
 25 H      0.8581     1.0000     0.1419     0.9901     0.9901     0.0000
 26 H      0.8526     1.0000     0.1474     0.9658     0.9658     0.0000
 27 H      0.8505     1.0000     0.1495     0.9800     0.9800     0.0000
 28 H      0.8332     1.0000     0.1668     0.9587     0.9587    -0.0000
 29 H      0.8527     1.0000     0.1473     0.9643     0.9643    -0.0000
 30 H      0.8503     1.0000     0.1497     0.9625     0.9625    -0.0000
 31 H      0.8532     1.0000     0.1468     0.9648     0.9648    -0.0000
 32 H      0.8602     1.0000     0.1398     0.9914     0.9914     0.0000

  Mayer bond orders larger than 0.100000
B(  0-H ,  1-C ) :   0.9530 B(  1-C ,  2-C ) :   0.9442 B(  1-C ,  3-C ) :   0.9656 
B(  1-C ,  6-C ) :   0.8922 B(  2-C , 20-H ) :   0.9716 B(  2-C , 21-H ) :   0.9698 
B(  2-C , 22-H ) :   0.9683 B(  3-C ,  4-O ) :   1.2214 B(  3-C ,  5-O ) :   2.0603 
B(  4-O , 23-H ) :   0.8408 B(  6-C ,  7-C ) :   1.3590 B(  6-C , 11-C ) :   1.3357 
B(  7-C ,  8-C ) :   1.3489 B(  7-C , 24-H ) :   0.9591 B(  8-C ,  9-C ) :   1.3142 
B(  8-C , 12-C ) :   0.9568 B(  9-C , 10-C ) :   1.4048 B(  9-C , 25-H ) :   0.9716 
B( 10-C , 11-C ) :   1.3859 B( 10-C , 26-H ) :   0.9805 B( 11-C , 27-H ) :   0.9607 
B( 12-C , 13-O ) :   2.0032 B( 12-C , 14-C ) :   0.9763 B( 14-C , 15-C ) :   1.3242 
B( 14-C , 19-C ) :   1.3175 B( 15-C , 16-C ) :   1.4021 B( 15-C , 28-H ) :   0.9650 
B( 16-C , 17-C ) :   1.3862 B( 16-C , 29-H ) :   0.9747 B( 17-C , 18-C ) :   1.3698 
B( 17-C , 30-H ) :   0.9685 B( 18-C , 19-C ) :   1.4277 B( 18-C , 31-H ) :   0.9760 
B( 19-C , 32-H ) :   0.9723 

-------
TIMINGS
-------

Total SCF time: 0 days 0 hours 4 min 35 sec 

Total time                  ....     275.966 sec
Sum of individual times     ....     275.296 sec  ( 99.8%)

Fock matrix formation       ....     271.099 sec  ( 98.2%)
  Split-RI-J                ....      14.218 sec  (  5.2% of F)
  Chain of spheres X        ....     226.432 sec  ( 83.5% of F)
  XC integration            ....      14.177 sec  (  5.2% of F)
    Basis function eval.    ....       3.607 sec  ( 25.4% of XC)
    Density eval.           ....       5.622 sec  ( 39.7% of XC)
    XC-Functional eval.     ....       0.234 sec  (  1.7% of XC)
    XC-Potential eval.      ....       4.039 sec  ( 28.5% of XC)
Diagonalization             ....       0.052 sec  (  0.0%)
Density matrix formation    ....       0.032 sec  (  0.0%)
Population analysis         ....       0.059 sec  (  0.0%)
Initial guess               ....       0.058 sec  (  0.0%)
Orbital Transformation      ....       0.000 sec  (  0.0%)
Orbital Orthonormalization  ....       0.045 sec  (  0.0%)
DIIS solution               ....       0.021 sec  (  0.0%)
SOSCF solution              ....       0.273 sec  (  0.1%)
Grid generation             ....       3.702 sec  (  1.3%)

Maximum memory used throughout the entire SCF-calculation: 456.0 MB

-------------------------   --------------------
FINAL SINGLE POINT ENERGY      -843.678903278806
-------------------------   --------------------

                                *** OPTIMIZATION RUN DONE ***

                            ***************************************
                            *     ORCA property calculations      *
                            ***************************************

                                    ---------------------
                                    Active property flags
                                    ---------------------
   (+) Dipole Moment


------------------------------------------------------------------------------
                       ORCA ELECTRIC PROPERTIES CALCULATION
------------------------------------------------------------------------------

Dipole Moment Calculation                       ... on
Quadrupole Moment Calculation                   ... off
Polarizability Calculation                      ... off
GBWName                                         ... Dexketoprofen\Dexketoprofen_B3LYP_def2-TZVP\Dexketoprofen_B3LYP_def2-TZVP.orcainp.gbw
Electron density                                ... Dexketoprofen\Dexketoprofen_B3LYP_def2-TZVP\Dexketoprofen_B3LYP_def2-TZVP.orcainp.scfp
The origin for moment calculation is the CENTER OF MASS  = ( 4.324278, -2.984297  4.550271)

-------------
DIPOLE MOMENT
-------------
                                X             Y             Z
Electronic contribution:     -1.17676       0.29571       5.21560
Nuclear contribution   :      0.46864      -2.17963      -5.64179
                        -----------------------------------------
Total Dipole Moment    :     -0.70812      -1.88392      -0.42619
                        -----------------------------------------
Magnitude (a.u.)       :      2.05724
Magnitude (Debye)      :      5.22908



--------------------
Rotational spectrum 
--------------------
 
Rotational constants in cm-1:     0.021175     0.007064     0.005912 
Rotational constants in MHz :   634.821927   211.788356   177.248219 

 Dipole components along the rotational axes: 
x,y,z [a.u.] :    -1.303818     1.527758    -0.445240 
x,y,z [Debye]:    -3.314041     3.883252    -1.131710 

 

Timings for individual modules:

Sum of individual times         ...     8531.236 sec (= 142.187 min)
GTO integral calculation        ...       10.393 sec (=   0.173 min)   0.1 %
SCF iterations                  ...     6721.512 sec (= 112.025 min)  78.8 %
SCF Gradient evaluation         ...     1798.133 sec (=  29.969 min)  21.1 %
Geometry relaxation             ...        1.198 sec (=   0.020 min)   0.0 %
                             ****ORCA TERMINATED NORMALLY****
TOTAL RUN TIME: 0 days 2 hours 22 minutes 13 seconds 15 msec
