
                                 *****************
                                 * O   R   C   A *
                                 *****************

                                            #,                                       
                                            ###                                      
                                            ####                                     
                                            #####                                    
                                            ######                                   
                                           ########,                                 
                                     ,,################,,,,,                         
                               ,,#################################,,                 
                          ,,##########################################,,             
                       ,#########################################, ''#####,          
                    ,#############################################,,   '####,        
                  ,##################################################,,,,####,       
                ,###########''''           ''''###############################       
              ,#####''   ,,,,##########,,,,          '''####'''          '####       
            ,##' ,,,,###########################,,,                        '##       
           ' ,,###''''                  '''############,,,                           
         ,,##''                                '''############,,,,        ,,,,,,###''
      ,#''                                            '''#######################'''  
     '                                                          ''''####''''         
             ,#######,   #######,   ,#######,      ##                                
            ,#'     '#,  ##    ##  ,#'     '#,    #''#        ######   ,####,        
            ##       ##  ##   ,#'  ##            #'  '#       #        #'  '#        
            ##       ##  #######   ##           ,######,      #####,   #    #        
            '#,     ,#'  ##    ##  '#,     ,#' ,#      #,         ##   #,  ,#        
             '#######'   ##     ##  '#######'  #'      '#     #####' # '####'        



                  #######################################################
                  #                        -***-                        #
                  #          Department of theory and spectroscopy      #
                  #    Directorship and core code : Frank Neese         #
                  #        Max Planck Institute fuer Kohlenforschung    #
                  #                Kaiser Wilhelm Platz 1               #
                  #                 D-45470 Muelheim/Ruhr               #
                  #                      Germany                        #
                  #                                                     #
                  #                  All rights reserved                #
                  #                        -***-                        #
                  #######################################################



                         Program Version 5.0.4 -  RELEASE  -

 With contributions from (in alphabetic order):
   Daniel Aravena         : Magnetic Suceptibility
   Michael Atanasov       : Ab Initio Ligand Field Theory (pilot matlab implementation)
   Alexander A. Auer      : GIAO ZORA, VPT2 properties, NMR spectrum
   Ute Becker             : Parallelization
   Giovanni Bistoni       : ED, misc. LED, open-shell LED, HFLD
   Martin Brehm           : Molecular dynamics
   Dmytro Bykov           : SCF Hessian
   Vijay G. Chilkuri      : MRCI spin determinant printing, contributions to CSF-ICE
   Dipayan Datta          : RHF DLPNO-CCSD density
   Achintya Kumar Dutta   : EOM-CC, STEOM-CC
   Dmitry Ganyushin       : Spin-Orbit,Spin-Spin,Magnetic field MRCI
   Miquel Garcia          : C-PCM and meta-GGA Hessian, CC/C-PCM, Gaussian charge scheme
   Yang Guo               : DLPNO-NEVPT2, F12-NEVPT2, CIM, IAO-localization
   Andreas Hansen         : Spin unrestricted coupled pair/coupled cluster methods
   Benjamin Helmich-Paris : MC-RPA, TRAH-SCF, COSX integrals
   Lee Huntington         : MR-EOM, pCC
   Robert Izsak           : Overlap fitted RIJCOSX, COSX-SCS-MP3, EOM
   Marcus Kettner         : VPT2
   Christian Kollmar      : KDIIS, OOCD, Brueckner-CCSD(T), CCSD density, CASPT2, CASPT2-K
   Simone Kossmann        : Meta GGA functionals, TD-DFT gradient, OOMP2, MP2 Hessian
   Martin Krupicka        : Initial AUTO-CI
   Lucas Lang             : DCDCAS
   Marvin Lechner         : AUTO-CI (C++ implementation), FIC-MRCC
   Dagmar Lenk            : GEPOL surface, SMD
   Dimitrios Liakos       : Extrapolation schemes; Compound Job, initial MDCI parallelization
   Dimitrios Manganas     : Further ROCIS development; embedding schemes
   Dimitrios Pantazis     : SARC Basis sets
   Anastasios Papadopoulos: AUTO-CI, single reference methods and gradients
   Taras Petrenko         : DFT Hessian,TD-DFT gradient, ASA, ECA, R-Raman, ABS, FL, XAS/XES, NRVS
   Peter Pinski           : DLPNO-MP2, DLPNO-MP2 Gradient
   Christoph Reimann      : Effective Core Potentials
   Marius Retegan         : Local ZFS, SOC
   Christoph Riplinger    : Optimizer, TS searches, QM/MM, DLPNO-CCSD(T), (RO)-DLPNO pert. Triples
   Tobias Risthaus        : Range-separated hybrids, TD-DFT gradient, RPA, STAB
   Michael Roemelt        : Original ROCIS implementation
   Masaaki Saitow         : Open-shell DLPNO-CCSD energy and density
   Barbara Sandhoefer     : DKH picture change effects
   Avijit Sen             : IP-ROCIS
   Kantharuban Sivalingam : CASSCF convergence, NEVPT2, FIC-MRCI
   Bernardo de Souza      : ESD, SOC TD-DFT
   Georgi Stoychev        : AutoAux, RI-MP2 NMR, DLPNO-MP2 response
   Willem Van den Heuvel  : Paramagnetic NMR
   Boris Wezisla          : Elementary symmetry handling
   Frank Wennmohs         : Technical directorship


 We gratefully acknowledge several colleagues who have allowed us to
 interface, adapt or use parts of their codes:
   Stefan Grimme, W. Hujo, H. Kruse, P. Pracht,  : VdW corrections, initial TS optimization,
                  C. Bannwarth, S. Ehlert          DFT functionals, gCP, sTDA/sTD-DF
   Ed Valeev, F. Pavosevic, A. Kumar             : LibInt (2-el integral package), F12 methods
   Garnet Chan, S. Sharma, J. Yang, R. Olivares  : DMRG
   Ulf Ekstrom                                   : XCFun DFT Library
   Mihaly Kallay                                 : mrcc  (arbitrary order and MRCC methods)
   Jiri Pittner, Ondrej Demel                    : Mk-CCSD
   Frank Weinhold                                : gennbo (NPA and NBO analysis)
   Christopher J. Cramer and Donald G. Truhlar   : smd solvation model
   Lars Goerigk                                  : TD-DFT with DH, B97 family of functionals
   V. Asgeirsson, H. Jonsson                     : NEB implementation
   FAccTs GmbH                                   : IRC, NEB, NEB-TS, DLPNO-Multilevel, CI-OPT
                                                   MM, QMMM, 2- and 3-layer-ONIOM, Crystal-QMMM,
                                                   LR-CPCM, SF, NACMEs, symmetry and pop. for TD-DFT,
                                                   nearIR, NL-DFT gradient (VV10), updates on ESD,
                                                   ML-optimized integration grids
   S Lehtola, MJT Oliveira, MAL Marques          : LibXC Library
   Liviu Ungur et al                             : ANISO software


 Your calculation uses the libint2 library for the computation of 2-el integrals
 For citations please refer to: http://libint.valeyev.net

 Your ORCA version has been built with support for libXC version: 5.1.0
 For citations please refer to: https://tddft.org/programs/libxc/

 This ORCA versions uses:
   CBLAS   interface :  Fast vector & matrix operations
   LAPACKE interface :  Fast linear algebra routines
   Shared memory     :  Shared parallel matrices


================================================================================

----- Orbital basis set information -----
Your calculation utilizes the basis: def2-TZVP
   F. Weigend and R. Ahlrichs, Phys. Chem. Chem. Phys. 7, 3297 (2005).

----- AuxJ basis set information -----
Your calculation utilizes the auxiliary basis: def2/J
   F. Weigend, Phys. Chem. Chem. Phys. 8, 1057 (2006).

================================================================================
                                        WARNINGS
                       Please study these warnings very carefully!
================================================================================


WARNING: Geometry Optimization
  ===> : Switching off AutoStart
         For restart on a previous wavefunction, please use MOREAD

INFO   : the flag for use of the SHARK integral package has been found!

================================================================================
                                       INPUT FILE
================================================================================
NAME = Ibuprofeno\Ibuprofeno_TPSS_def2-TZVP\Ibuprofeno_TPSS_def2-TZVP.orcainp
|  1> # ORCA input file
|  2> # 
|  3> !TPSS def2-TZVP Opt CPCM(WATER)
|  4> 
|  5> * xyz 0 1
|  6>    C        2.66158         3.56603         1.95918
|  7>    C        2.35674         2.06714         1.98319
|  8>    C        0.84031         1.84916         1.95989
|  9>    C        3.01330         1.33196         0.79902
| 10>    C        4.52232         1.42683         0.74235
| 11>    C        5.32189         0.93981         1.78164
| 12>    C        6.71736         0.95939         1.67882
| 13>    C        7.34510         1.45003         0.52519
| 14>    C        6.54220         1.97800        -0.49742
| 15>    C        5.14902         1.96394        -0.38839
| 16>    C        8.85656         1.31629         0.36211
| 17>    C        9.16613         0.42959        -0.85305
| 18>    C        9.67095         2.60747         0.26817
| 19>    O        9.01350         3.75250         0.54683
| 20>    O       10.86903         2.61984        -0.01082
| 21>    H        2.17485         4.07238         2.79932
| 22>    H        2.30617         4.02764         1.03185
| 23>    H        3.73615         3.75486         2.04404
| 24>    H        2.73714         1.65566         2.92652
| 25>    H        0.40138         2.19680         1.01811
| 26>    H        0.35521         2.39292         2.77772
| 27>    H        0.59667         0.78776         2.07524
| 28>    H        2.58674         1.71094        -0.13932
| 29>    H        2.74929         0.26572         0.83430
| 30>    H        4.86391         0.51065         2.67178
| 31>    H        7.30510         0.54371         2.49678
| 32>    H        6.98693         2.37275        -1.41001
| 33>    H        4.55282         2.35109        -1.21386
| 34>    H        9.24612         0.80732         1.25358
| 35>    H        8.79792         0.87448        -1.78414
| 36>    H        8.70009        -0.55619        -0.74548
| 37>    H       10.24379         0.28017        -0.97464
| 38>    H        8.07580         3.64641         0.78834
| 39> *
| 40> 
| 41>                          ****END OF INPUT****
================================================================================

                       *****************************
                       * Geometry Optimization Run *
                       *****************************

Geometry optimization settings:
Update method            Update   .... BFGS
Choice of coordinates    CoordSys .... Z-matrix Internals
Initial Hessian          InHess   .... Almoef's Model

Convergence Tolerances:
Energy Change            TolE     ....  5.0000e-06 Eh
Max. Gradient            TolMAXG  ....  3.0000e-04 Eh/bohr
RMS Gradient             TolRMSG  ....  1.0000e-04 Eh/bohr
Max. Displacement        TolMAXD  ....  4.0000e-03 bohr
RMS Displacement         TolRMSD  ....  2.0000e-03 bohr
Strict Convergence                ....  False
------------------------------------------------------------------------------
                        ORCA OPTIMIZATION COORDINATE SETUP
------------------------------------------------------------------------------

The optimization will be done in new redundant internal coordinates
Making redundant internal coordinates   ...  (new redundants) done
Evaluating the initial hessian          ...  (Almloef) done
Evaluating the coordinates              ...  done
Calculating the B-matrix                .... done
Calculating the G-matrix                .... done
Diagonalizing the G-matrix              .... done
Small eigenvalue found = 1.037e-02
Small eigenvalue found = 2.002e-02
Small eigenvalue found = 2.508e-02
Small eigenvalue found = 2.944e-02
The first mode is                       ....   79
The number of degrees of freedom        ....   93

    -----------------------------------------------------------------
                    Redundant Internal Coordinates


    -----------------------------------------------------------------
         Definition                    Initial Value    Approx d2E/dq
    -----------------------------------------------------------------
      1. B(C   1,C   0)                  1.5298         0.373900   
      2. B(C   2,C   1)                  1.5322         0.370576   
      3. B(C   3,C   1)                  1.5407         0.359148   
      4. B(C   4,C   3)                  1.5131         0.397560   
      5. B(C   5,C   4)                  1.3988         0.604935   
      6. B(C   6,C   5)                  1.3994         0.603612   
      7. B(C   7,C   6)                  1.4020         0.597818   
      8. B(C   8,C   7)                  1.4033         0.595096   
      9. B(C   9,C   8)                  1.3975         0.607793   
     10. B(C   9,C   4)                  1.3999         0.602408   
     11. B(C  10,C   7)                  1.5261         0.378960   
     12. B(C  11,C  10)                  1.5358         0.365698   
     13. B(C  12,C  10)                  1.5294         0.374337   
     14. B(O  13,C  12)                  1.3494         0.649513   
     15. B(O  14,C  12)                  1.2302         1.006541   
     16. B(H  15,C   0)                  1.0950         0.353483   
     17. B(H  16,C   0)                  1.0951         0.353359   
     18. B(H  17,C   0)                  1.0943         0.354417   
     19. B(H  18,C   1)                  1.0972         0.350675   
     20. B(H  19,C   2)                  1.0957         0.352695   
     21. B(H  20,C   2)                  1.0954         0.353061   
     22. B(H  21,C   2)                  1.0951         0.353421   
     23. B(H  22,C   3)                  1.0982         0.349404   
     24. B(H  23,C   3)                  1.0990         0.348381   
     25. B(H  24,C   5)                  1.0892         0.361211   
     26. B(H  25,C   6)                  1.0896         0.360594   
     27. B(H  26,C   8)                  1.0892         0.361113   
     28. B(H  27,C   9)                  1.0894         0.360926   
     29. B(H  28,C  10)                  1.0980         0.349717   
     30. B(H  29,C  11)                  1.0956         0.352711   
     31. B(H  30,C  11)                  1.0957         0.352657   
     32. B(H  31,C  11)                  1.0947         0.353880   
     33. B(H  32,H  17)                  4.5190         0.000000   
     34. B(H  32,O  13)                  0.9741         0.493716   
     35. A(C   1,C   0,H  15)          110.6374         0.323379   
     36. A(H  15,C   0,H  17)          107.2880         0.289272   
     37. A(C   1,C   0,H  17)          111.3170         0.323519   
     38. A(H  16,C   0,H  17)          108.1559         0.289256   
     39. A(C   1,C   0,H  16)          111.1997         0.323361   
     40. A(H  15,C   0,H  16)          108.0893         0.289136   
     41. A(C   0,C   1,C   3)          111.7499         0.360970   
     42. A(C   2,C   1,H  18)          107.6288         0.322484   
     43. A(C   2,C   1,C   3)          110.0098         0.360421   
     44. A(C   3,C   1,H  18)          109.5177         0.320835   
     45. A(C   0,C   1,H  18)          108.1713         0.322956   
     46. A(C   0,C   1,C   2)          109.6564         0.362905   
     47. A(C   1,C   2,H  19)          111.3718         0.322788   
     48. A(H  20,C   2,H  21)          107.6960         0.289090   
     49. A(C   1,C   2,H  20)          110.8749         0.322843   
     50. A(H  19,C   2,H  21)          107.9952         0.289043   
     51. A(C   1,C   2,H  21)          110.8842         0.322897   
     52. A(H  19,C   2,H  20)          107.8691         0.288997   
     53. A(C   1,C   3,H  23)          109.6271         0.320491   
     54. A(C   4,C   3,H  22)          109.4958         0.326033   
     55. A(H  22,C   3,H  23)          105.6001         0.287971   
     56. A(C   1,C   3,C   4)          115.0790         0.364774   
     57. A(C   1,C   3,H  22)          109.0574         0.320644   
     58. A(C   4,C   3,H  23)          107.5548         0.325876   
     59. A(C   5,C   4,C   9)          118.5426         0.429922   
     60. A(C   3,C   4,C   5)          121.3610         0.399316   
     61. A(C   3,C   4,C   9)          120.0514         0.399022   
     62. A(C   4,C   5,C   6)          120.7005         0.430076   
     63. A(C   6,C   5,H  24)          119.0041         0.351497   
     64. A(C   4,C   5,H  24)          120.2687         0.351627   
     65. A(C   5,C   6,C   7)          120.7866         0.429163   
     66. A(C   7,C   6,H  25)          120.6425         0.350823   
     67. A(C   5,C   6,H  25)          118.5151         0.351395   
     68. A(C   8,C   7,C  10)          121.4515         0.394831   
     69. A(C   6,C   7,C  10)          120.0467         0.395147   
     70. A(C   6,C   7,C   8)          118.3671         0.428071   
     71. A(C   9,C   8,H  26)          118.4272         0.351891   
     72. A(C   7,C   8,C   9)          120.6476         0.429344   
     73. A(C   7,C   8,H  26)          120.8838         0.350638   
     74. A(C   4,C   9,C   8)          120.8740         0.430286   
     75. A(C   4,C   9,H  27)          120.2245         0.351331   
     76. A(C   8,C   9,H  27)          118.8748         0.351860   
     77. A(C   7,C  10,C  11)          109.5593         0.362917   
     78. A(C  12,C  10,H  28)          104.6130         0.322874   
     79. A(C  11,C  10,H  28)          107.6537         0.321641   
     80. A(C   7,C  10,H  28)          107.7737         0.323524   
     81. A(C  11,C  10,C  12)          109.3588         0.362157   
     82. A(C   7,C  10,C  12)          117.3836         0.364369   
     83. A(H  30,C  11,H  31)          107.8671         0.289097   
     84. A(H  29,C  11,H  31)          106.9693         0.289104   
     85. A(C  10,C  11,H  31)          111.4140         0.322265   
     86. A(H  29,C  11,H  30)          107.8070         0.288947   
     87. A(C  10,C  11,H  30)          110.8563         0.322082   
     88. A(C  10,C  11,H  29)          111.7287         0.322090   
     89. A(O  13,C  12,O  14)          120.8493         0.471760   
     90. A(C  10,C  12,O  14)          122.7511         0.429680   
     91. A(C  10,C  12,O  13)          116.3740         0.397523   
     92. A(C  12,O  13,H  32)          115.3270         0.369780   
     93. D(H  18,C   1,C   0,H  16)    179.6803         0.011162   
     94. D(H  18,C   1,C   0,H  17)     59.0083         0.011162   
     95. D(C   2,C   1,C   0,H  16)    -63.2090         0.011162   
     96. D(C   3,C   1,C   0,H  15)    179.1768         0.011162   
     97. D(C   2,C   1,C   0,H  17)    176.1190         0.011162   
     98. D(C   2,C   1,C   0,H  15)     56.9203         0.011162   
     99. D(C   3,C   1,C   0,H  16)     59.0475         0.011162   
    100. D(C   3,C   1,C   0,H  17)    -61.6245         0.011162   
    101. D(H  18,C   1,C   0,H  15)    -60.1904         0.011162   
    102. D(H  19,C   2,C   1,C   3)    -58.0360         0.010976   
    103. D(H  19,C   2,C   1,H  18)   -177.2980         0.010976   
    104. D(H  21,C   2,C   1,C   0)   -174.4576         0.010976   
    105. D(H  20,C   2,C   1,C   3)   -178.1609         0.010976   
    106. D(H  20,C   2,C   1,H  18)     62.5771         0.010976   
    107. D(H  21,C   2,C   1,H  18)    -57.0072         0.010976   
    108. D(H  21,C   2,C   1,C   3)     62.2548         0.010976   
    109. D(H  19,C   2,C   1,C   0)     65.2516         0.010976   
    110. D(H  20,C   2,C   1,C   0)    -54.8733         0.010976   
    111. D(H  23,C   3,C   1,C   2)    -56.3646         0.010352   
    112. D(H  23,C   3,C   1,C   0)   -178.4183         0.010352   
    113. D(H  22,C   3,C   1,H  18)    176.9042         0.010352   
    114. D(H  22,C   3,C   1,C   2)     58.8025         0.010352   
    115. D(H  22,C   3,C   1,C   0)    -63.2512         0.010352   
    116. D(C   4,C   3,C   1,H  18)    -59.6252         0.010352   
    117. D(C   4,C   3,C   1,C   2)   -177.7269         0.010352   
    118. D(H  23,C   3,C   1,H  18)     61.7372         0.010352   
    119. D(C   4,C   3,C   1,C   0)     60.2194         0.010352   
    120. D(C   9,C   4,C   3,C   1)   -122.0671         0.011736   
    121. D(C   5,C   4,C   3,H  23)    -62.0731         0.011736   
    122. D(C   5,C   4,C   3,H  22)   -176.3542         0.011736   
    123. D(C   5,C   4,C   3,C   1)     60.4082         0.011736   
    124. D(C   9,C   4,C   3,H  23)    115.4515         0.011736   
    125. D(C   9,C   4,C   3,H  22)      1.1705         0.011736   
    126. D(H  24,C   5,C   4,C   9)   -179.6416         0.025250   
    127. D(H  24,C   5,C   4,C   3)     -2.0806         0.025250   
    128. D(C   6,C   5,C   4,C   9)     -1.5386         0.025250   
    129. D(C   6,C   5,C   4,C   3)    176.0224         0.025250   
    130. D(H  25,C   6,C   5,H  24)     -0.0650         0.025134   
    131. D(H  25,C   6,C   5,C   4)   -178.1916         0.025134   
    132. D(C   7,C   6,C   5,C   4)     -0.8909         0.025134   
    133. D(C   7,C   6,C   5,H  24)    177.2357         0.025134   
    134. D(C  10,C   7,C   6,H  25)      4.3174         0.024628   
    135. D(C  10,C   7,C   6,C   5)   -172.9258         0.024628   
    136. D(C   8,C   7,C   6,H  25)   -179.8394         0.024628   
    137. D(C   8,C   7,C   6,C   5)      2.9174         0.024628   
    138. D(H  26,C   8,C   7,C  10)     -4.3887         0.024392   
    139. D(H  26,C   8,C   7,C   6)    179.8293         0.024392   
    140. D(C   9,C   8,C   7,C  10)    173.2343         0.024392   
    141. D(C   9,C   8,C   7,C   6)     -2.5477         0.024392   
    142. D(H  27,C   9,C   8,H  26)     -0.2974         0.025503   
    143. D(H  27,C   9,C   8,C   7)   -177.9778         0.025503   
    144. D(C   4,C   9,C   8,H  26)    177.8273         0.025503   
    145. D(C   4,C   9,C   8,C   7)      0.1468         0.025503   
    146. D(H  27,C   9,C   4,C   5)   -179.9923         0.025028   
    147. D(H  27,C   9,C   4,C   3)      2.4138         0.025028   
    148. D(C   8,C   9,C   4,C   5)      1.9083         0.025028   
    149. D(C   8,C   9,C   4,C   3)   -175.6856         0.025028   
    150. D(H  28,C  10,C   7,C   6)      0.2413         0.010720   
    151. D(C  12,C  10,C   7,C   8)     66.8569         0.010720   
    152. D(C  12,C  10,C   7,C   6)   -117.4310         0.010720   
    153. D(C  11,C  10,C   7,C   8)    -58.6082         0.010720   
    154. D(H  28,C  10,C   7,C   8)   -175.4709         0.010720   
    155. D(C  11,C  10,C   7,C   6)    117.1040         0.010720   
    156. D(H  31,C  11,C  10,H  28)    -60.7787         0.010707   
    157. D(H  31,C  11,C  10,C   7)   -177.7170         0.010707   
    158. D(H  30,C  11,C  10,H  28)     59.3594         0.010707   
    159. D(H  30,C  11,C  10,C  12)    172.4657         0.010707   
    160. D(H  30,C  11,C  10,C   7)    -57.5789         0.010707   
    161. D(H  29,C  11,C  10,H  28)    179.6323         0.010707   
    162. D(H  31,C  11,C  10,C  12)     52.3277         0.010707   
    163. D(H  29,C  11,C  10,C  12)    -67.2613         0.010707   
    164. D(H  29,C  11,C  10,C   7)     62.6941         0.010707   
    165. D(O  14,C  12,C  10,H  28)     68.8806         0.010477   
    166. D(O  14,C  12,C  10,C  11)    -46.1933         0.010477   
    167. D(O  14,C  12,C  10,C   7)   -171.7576         0.010477   
    168. D(O  13,C  12,C  10,H  28)   -109.2950         0.010477   
    169. D(O  13,C  12,C  10,C  11)    135.6312         0.010477   
    170. D(O  13,C  12,C  10,C   7)     10.0669         0.010477   
    171. D(H  32,O  13,C  12,O  14)   -177.8785         0.031174   
    172. D(H  32,O  13,C  12,C  10)      0.3343         0.031174   
    -----------------------------------------------------------------

Number of atoms                         .... 33
Number of degrees of freedom            .... 172

         *************************************************************
         *                GEOMETRY OPTIMIZATION CYCLE   1            *
         *************************************************************
---------------------------------
CARTESIAN COORDINATES (ANGSTROEM)
---------------------------------
  C      2.661580    3.566030    1.959180
  C      2.356740    2.067140    1.983190
  C      0.840310    1.849160    1.959890
  C      3.013300    1.331960    0.799020
  C      4.522320    1.426830    0.742350
  C      5.321890    0.939810    1.781640
  C      6.717360    0.959390    1.678820
  C      7.345100    1.450030    0.525190
  C      6.542200    1.978000   -0.497420
  C      5.149020    1.963940   -0.388390
  C      8.856560    1.316290    0.362110
  C      9.166130    0.429590   -0.853050
  C      9.670950    2.607470    0.268170
  O      9.013500    3.752500    0.546830
  O     10.869030    2.619840   -0.010820
  H      2.174850    4.072380    2.799320
  H      2.306170    4.027640    1.031850
  H      3.736150    3.754860    2.044040
  H      2.737140    1.655660    2.926520
  H      0.401380    2.196800    1.018110
  H      0.355210    2.392920    2.777720
  H      0.596670    0.787760    2.075240
  H      2.586740    1.710940   -0.139320
  H      2.749290    0.265720    0.834300
  H      4.863910    0.510650    2.671780
  H      7.305100    0.543710    2.496780
  H      6.986930    2.372750   -1.410010
  H      4.552820    2.351090   -1.213860
  H      9.246120    0.807320    1.253580
  H      8.797920    0.874480   -1.784140
  H      8.700090   -0.556190   -0.745480
  H     10.243790    0.280170   -0.974640
  H      8.075800    3.646410    0.788340

----------------------------
CARTESIAN COORDINATES (A.U.)
----------------------------
  NO LB      ZA    FRAG     MASS         X           Y           Z
   0 C     6.0000    0    12.011    5.029657    6.738820    3.702314
   1 C     6.0000    0    12.011    4.453593    3.906328    3.747686
   2 C     6.0000    0    12.011    1.587956    3.494406    3.703655
   3 C     6.0000    0    12.011    5.694312    2.517040    1.509929
   4 C     6.0000    0    12.011    8.545946    2.696318    1.402838
   5 C     6.0000    0    12.011   10.056915    1.775984    3.366812
   6 C     6.0000    0    12.011   12.693971    1.812984    3.172510
   7 C     6.0000    0    12.011   13.880227    2.740160    0.992465
   8 C     6.0000    0    12.011   12.362966    3.737878   -0.939988
   9 C     6.0000    0    12.011    9.730238    3.711309   -0.733951
  10 C     6.0000    0    12.011   16.736473    2.487428    0.684289
  11 C     6.0000    0    12.011   17.321475    0.811807   -1.612031
  12 C     6.0000    0    12.011   18.275447    4.927404    0.506768
  13 O     8.0000    0    15.999   17.033047    7.091197    1.033359
  14 O     8.0000    0    15.999   20.539490    4.950780   -0.020447
  15 H     1.0000    0     1.008    4.109871    7.695683    5.289948
  16 H     1.0000    0     1.008    4.358030    7.611137    1.949914
  17 H     1.0000    0     1.008    7.060300    7.095657    3.862676
  18 H     1.0000    0     1.008    5.172445    3.128744    5.530321
  19 H     1.0000    0     1.008    0.758498    4.151350    1.923949
  20 H     1.0000    0     1.008    0.671250    4.521963    5.249130
  21 H     1.0000    0     1.008    1.127543    1.488651    3.921635
  22 H     1.0000    0     1.008    4.888230    3.233208   -0.263277
  23 H     1.0000    0     1.008    5.195405    0.502138    1.576599
  24 H     1.0000    0     1.008    9.191458    0.964989    5.048932
  25 H     1.0000    0     1.008   13.804638    1.027463    4.718230
  26 H     1.0000    0     1.008   13.203384    4.483848   -2.664533
  27 H     1.0000    0     1.008    8.603583    4.442916   -2.293863
  28 H     1.0000    0     1.008   17.472635    1.525614    2.368923
  29 H     1.0000    0     1.008   16.625659    1.652528   -3.371536
  30 H     1.0000    0     1.008   16.440787   -1.051047   -1.408753
  31 H     1.0000    0     1.008   19.357958    0.529445   -1.841803
  32 H     1.0000    0     1.008   15.261050    6.890716    1.489747

--------------------------------
INTERNAL COORDINATES (ANGSTROEM)
--------------------------------
 C      0   0   0     0.000000000000     0.00000000     0.00000000
 C      1   0   0     1.529763098587     0.00000000     0.00000000
 C      2   1   0     1.532193889591   109.65642957     0.00000000
 C      2   1   3     1.540720368821   111.74988698   122.25649062
 C      4   2   1     1.513060860045   115.07903019    60.21937875
 C      5   4   2     1.398793898114   121.36102137    60.40818664
 C      6   5   4     1.399389813347   120.70047706   176.02238570
 C      7   6   5     1.402015440036   120.78655629   359.10905072
 C      8   7   6     1.403257618187   118.36711518     2.91744451
 C      9   8   7     1.397510549835   120.64757703   357.45231960
 C      8   7   6     1.526103799091   120.04667535   187.07424588
 C     11   8   7     1.535800866161   109.55925621   117.10399406
 C     11   8   7     1.529444862720   117.38359896   242.56904687
 O     13  11   8     1.349438994175   116.37404858    10.06686382
 O     13  11   8     1.230196782389   122.75113339   188.24243107
 H      1   2   3     1.095048690698   110.63740540    56.92026033
 H      1   2   3     1.095144277755   111.19966589   296.79097542
 H      1   2   3     1.094330239644   111.31701979   176.11897340
 H      2   1   3     1.097219868258   108.17131130   242.88937010
 H      3   2   1     1.095656279542   111.37184115    65.25159202
 H      3   2   1     1.095373386796   110.87492833   305.12670759
 H      3   2   1     1.095096357450   110.88423407   185.54237307
 H      4   2   1     1.098208190463   109.05737134   296.74879919
 H      4   2   1     1.099005776190   109.62713816   181.58171989
 H      6   5   4     1.089161698555   120.26872057   357.91941977
 H      7   6   5     1.089626877238   118.51514194   181.80836624
 H      9   8   7     1.089234980847   120.88383583   179.82925508
 H     10   9   8     1.089376098232   118.87478786   182.02217040
 H     11   8   7     1.097964578390   107.77369930     0.24126400
 H     12  11   8     1.095643328962   111.72871340    62.69406241
 H     12  11   8     1.095685536502   110.85633512   302.42107147
 H     12  11   8     1.094742682140   111.41403448   182.28302135
 H     14  13  11     0.974096226355   115.32695271     0.33429802

---------------------------
INTERNAL COORDINATES (A.U.)
---------------------------
 C      0   0   0     0.000000000000     0.00000000     0.00000000
 C      1   0   0     2.890833306109     0.00000000     0.00000000
 C      2   1   0     2.895426835395   109.65642957     0.00000000
 C      2   1   3     2.911539546026   111.74988698   122.25649062
 C      4   2   1     2.859270649440   115.07903019    60.21937875
 C      5   4   2     2.643337385235   121.36102137    60.40818664
 C      6   5   4     2.644463501825   120.70047706   176.02238570
 C      7   6   5     2.649425217198   120.78655629   359.10905072
 C      8   7   6     2.651772593712   118.36711518     2.91744451
 C      9   8   7     2.640912208454   120.64757703   357.45231960
 C      8   7   6     2.883918232219   120.04667535   187.07424588
 C     11   8   7     2.902243033283   109.55925621   117.10399406
 C     11   8   7     2.890231927473   117.38359896   242.56904687
 O     13  11   8     2.550070133425   116.37404858    10.06686382
 O     13  11   8     2.324735009546   122.75113339   188.24243107
 H      1   2   3     2.069342128729   110.63740540    56.92026033
 H      1   2   3     2.069522762088   111.19966589   296.79097542
 H      1   2   3     2.067984452996   111.31701979   176.11897340
 H      2   1   3     2.073445059705   108.17131130   242.88937010
 H      3   2   1     2.070490305246   111.37184115    65.25159202
 H      3   2   1     2.069955715429   110.87492833   305.12670759
 H      3   2   1     2.069432205835   110.88423407   185.54237307
 H      4   2   1     2.075312718004   109.05737134   296.74879919
 H      4   2   1     2.076819936598   109.62713816   181.58171989
 H      6   5   4     2.058217325826   120.26872057   357.91941977
 H      7   6   5     2.059096386140   118.51514194   181.80836624
 H      9   8   7     2.058355809287   120.88383583   179.82925508
 H     10   9   8     2.058622482499   118.87478786   182.02217040
 H     11   8   7     2.074852357904   107.77369930     0.24126400
 H     12  11   8     2.070465832197   111.72871340    62.69406241
 H     12  11   8     2.070545592888   110.85633512   302.42107147
 H     12  11   8     2.068763856360   111.41403448   182.28302135
 H     14  13  11     1.840775095898   115.32695271     0.33429802

---------------------
BASIS SET INFORMATION
---------------------
There are 3 groups of distinct atoms

 Group   1 Type C   : 11s6p2d1f contracted to 5s3p2d1f pattern {62111/411/11/1}
 Group   2 Type O   : 11s6p2d1f contracted to 5s3p2d1f pattern {62111/411/11/1}
 Group   3 Type H   : 5s1p contracted to 3s1p pattern {311/1}

Atom   0C    basis set group =>   1
Atom   1C    basis set group =>   1
Atom   2C    basis set group =>   1
Atom   3C    basis set group =>   1
Atom   4C    basis set group =>   1
Atom   5C    basis set group =>   1
Atom   6C    basis set group =>   1
Atom   7C    basis set group =>   1
Atom   8C    basis set group =>   1
Atom   9C    basis set group =>   1
Atom  10C    basis set group =>   1
Atom  11C    basis set group =>   1
Atom  12C    basis set group =>   1
Atom  13O    basis set group =>   2
Atom  14O    basis set group =>   2
Atom  15H    basis set group =>   3
Atom  16H    basis set group =>   3
Atom  17H    basis set group =>   3
Atom  18H    basis set group =>   3
Atom  19H    basis set group =>   3
Atom  20H    basis set group =>   3
Atom  21H    basis set group =>   3
Atom  22H    basis set group =>   3
Atom  23H    basis set group =>   3
Atom  24H    basis set group =>   3
Atom  25H    basis set group =>   3
Atom  26H    basis set group =>   3
Atom  27H    basis set group =>   3
Atom  28H    basis set group =>   3
Atom  29H    basis set group =>   3
Atom  30H    basis set group =>   3
Atom  31H    basis set group =>   3
Atom  32H    basis set group =>   3
---------------------------------
AUXILIARY/J BASIS SET INFORMATION
---------------------------------
There are 3 groups of distinct atoms

 Group   1 Type C   : 12s5p4d2f1g contracted to 6s4p3d1f1g pattern {711111/2111/211/2/1}
 Group   2 Type O   : 12s5p4d2f1g contracted to 6s4p3d1f1g pattern {711111/2111/211/2/1}
 Group   3 Type H   : 5s2p1d contracted to 3s1p1d pattern {311/2/1}

Atom   0C    basis set group =>   1
Atom   1C    basis set group =>   1
Atom   2C    basis set group =>   1
Atom   3C    basis set group =>   1
Atom   4C    basis set group =>   1
Atom   5C    basis set group =>   1
Atom   6C    basis set group =>   1
Atom   7C    basis set group =>   1
Atom   8C    basis set group =>   1
Atom   9C    basis set group =>   1
Atom  10C    basis set group =>   1
Atom  11C    basis set group =>   1
Atom  12C    basis set group =>   1
Atom  13O    basis set group =>   2
Atom  14O    basis set group =>   2
Atom  15H    basis set group =>   3
Atom  16H    basis set group =>   3
Atom  17H    basis set group =>   3
Atom  18H    basis set group =>   3
Atom  19H    basis set group =>   3
Atom  20H    basis set group =>   3
Atom  21H    basis set group =>   3
Atom  22H    basis set group =>   3
Atom  23H    basis set group =>   3
Atom  24H    basis set group =>   3
Atom  25H    basis set group =>   3
Atom  26H    basis set group =>   3
Atom  27H    basis set group =>   3
Atom  28H    basis set group =>   3
Atom  29H    basis set group =>   3
Atom  30H    basis set group =>   3
Atom  31H    basis set group =>   3
Atom  32H    basis set group =>   3
------------------------------------------------------------------------------
                           ORCA GTO INTEGRAL CALCULATION
                           -- RI-GTO INTEGRALS CHOSEN --
------------------------------------------------------------------------------
------------------------------------------------------------------------------
                   ___                                                        
                  /   \      - P O W E R E D   B Y -                         
                 /     \                                                     
                 |  |  |   _    _      __       _____    __    __             
                 |  |  |  | |  | |    /  \     |  _  \  |  |  /  |          
                  \  \/   | |  | |   /    \    | | | |  |  | /  /          
                 / \  \   | |__| |  /  /\  \   | |_| |  |  |/  /          
                |  |  |   |  __  | /  /__\  \  |    /   |      \           
                |  |  |   | |  | | |   __   |  |    \   |  |\   \          
                \     /   | |  | | |  |  |  |  | |\  \  |  | \   \       
                 \___/    |_|  |_| |__|  |__|  |_| \__\ |__|  \__/        
                                                                              
                      - O R C A' S   B I G   F R I E N D -                    
                                      &                                       
                       - I N T E G R A L  F E E D E R -                       
                                                                              
 v1 FN, 2020, v2 2021                                                         
------------------------------------------------------------------------------


Reading SHARK input file Ibuprofeno\Ibuprofeno_TPSS_def2-TZVP\Ibuprofeno_TPSS_def2-TZVP.orcainp.SHARKINP.tmp ... ok
----------------------
SHARK INTEGRAL PACKAGE
----------------------

Number of atoms                             ...     33
Number of basis functions                   ...    573
Number of shells                            ...    237
Maximum angular momentum                    ...      3
Integral batch strategy                     ... SHARK/LIBINT Hybrid
RI-J (if used) integral strategy            ... SPLIT-RIJ (Revised 2003 algorithm where possible)
Printlevel                                  ...      1
Contraction scheme used                     ... SEGMENTED contraction
Coulomb Range Separation                    ... NOT USED
Exchange Range Separation                   ... NOT USED
Finite Nucleus Model                        ... NOT USED
Auxiliary Coulomb fitting basis             ... AVAILABLE
   # of basis functions in Aux-J            ...    933
   # of shells in Aux-J                     ...    315
   Maximum angular momentum in Aux-J        ...      4
Auxiliary J/K fitting basis                 ... NOT available
Auxiliary Correlation fitting basis         ... NOT available
Auxiliary 'external' fitting basis          ... NOT available
Integral threshold                          ...     2.500000e-11
Primitive cut-off                           ...     2.500000e-12
Primitive pair pre-selection threshold      ...     2.500000e-12

Calculating pre-screening integrals         ... done (  0.1 sec) Dimension = 237
Organizing shell pair data                  ... done (  0.1 sec)
Shell pair information
Total number of shell pairs                 ...     28203
Shell pairs after pre-screening             ...     21284
Total number of primitive shell pairs       ...     83820
Primitive shell pairs kept                  ...     44277
          la=0 lb=0:   6163 shell pairs
          la=1 lb=0:   6274 shell pairs
          la=1 lb=1:   1627 shell pairs
          la=2 lb=0:   2889 shell pairs
          la=2 lb=1:   1473 shell pairs
          la=2 lb=2:    354 shell pairs
          la=3 lb=0:   1382 shell pairs
          la=3 lb=1:    709 shell pairs
          la=3 lb=2:    325 shell pairs
          la=3 lb=3:     88 shell pairs

Calculating one electron integrals          ... done (  0.0 sec)
Calculating RI/J V-Matrix + Cholesky decomp.... done (  0.0 sec)
Calculating Nuclear repulsion               ... done (  0.0 sec) ENN=    964.641110661160 Eh

SHARK setup successfully completed in   0.4 seconds

Maximum memory used throughout the entire GTOINT-calculation: 246.6 MB
-------------------------------------------------------------------------------
                                 ORCA SCF
-------------------------------------------------------------------------------

------------
SCF SETTINGS
------------
Hamiltonian:
 Density Functional     Method          .... DFT(GTOs)
 Exchange Functional    Exchange        .... TPSS
 Correlation Functional Correlation     .... TPSS
 LDA part of GGA corr.  LDAOpt          .... PW91-LDA
 Gradients option       PostSCFGGA      .... off
   Density functional embedding theory  .... OFF
   NL short-range parameter             ....  5.000000
 RI-approximation to the Coulomb term is turned on
   Number of AuxJ basis functions       .... 933


General Settings:
 Integral files         IntName         .... Ibuprofeno\Ibuprofeno_TPSS_def2-TZVP\Ibuprofeno_TPSS_def2-TZVP.orcainp
 Hartree-Fock type      HFTyp           .... RHF
 Total Charge           Charge          ....    0
 Multiplicity           Mult            ....    1
 Number of Electrons    NEL             ....  112
 Basis Dimension        Dim             ....  573
 Nuclear Repulsion      ENuc            ....    964.6411106612 Eh

Convergence Acceleration:
 DIIS                   CNVDIIS         .... on
   Start iteration      DIISMaxIt       ....    12
   Startup error        DIISStart       ....  0.200000
   # of expansion vecs  DIISMaxEq       ....     5
   Bias factor          DIISBfac        ....   1.050
   Max. coefficient     DIISMaxC        ....  10.000
 Trust-Rad. Augm. Hess. CNVTRAH         .... auto
   Auto Start mean grad. ratio tolernc. ....  1.125000
   Auto Start start iteration           ....    20
   Auto Start num. interpolation iter.  ....    10
   Max. Number of Micro iterations      ....    16
   Max. Number of Macro iterations      .... Maxiter - #DIIS iter
   Number of Davidson start vectors     ....     2
   Converg. threshold I  (grad. norm)   ....   1.000e-05
   Converg. threshold II (energy diff.) ....   1.000e-08
   Grad. Scal. Fac. for Micro threshold ....   0.100
   Minimum threshold for Micro iter.    ....   0.010
   NR start threshold (gradient norm)   ....   0.001
   Initial trust radius                 ....   0.400
   Minimum AH scaling param. (alpha)    ....   1.000
   Maximum AH scaling param. (alpha)    .... 1000.000
   Orbital update algorithm             .... Taylor
   White noise on init. David. guess    .... on
   Maximum white noise                  ....   0.010
   Quad. conv. algorithm                .... NR
 SOSCF                  CNVSOSCF        .... on
   Start iteration      SOSCFMaxIt      ....   150
   Startup grad/error   SOSCFStart      ....  0.003300
 Level Shifting         CNVShift        .... on
   Level shift para.    LevelShift      ....    0.2500
   Turn off err/grad.   ShiftErr        ....    0.0010
 Zerner damping         CNVZerner       .... off
 Static damping         CNVDamp         .... on
   Fraction old density DampFac         ....    0.7000
   Max. Damping (<1)    DampMax         ....    0.9800
   Min. Damping (>=0)   DampMin         ....    0.0000
   Turn off err/grad.   DampErr         ....    0.1000
 Fernandez-Rico         CNVRico         .... off

SCF Procedure:
 Maximum # iterations   MaxIter         ....   125
 SCF integral mode      SCFMode         .... Direct
   Integral package                     .... SHARK and LIBINT hybrid scheme
 Reset frequency        DirectResetFreq ....    20
 Integral Threshold     Thresh          ....  2.500e-11 Eh
 Primitive CutOff       TCut            ....  2.500e-12 Eh

Convergence Tolerance:
 Convergence Check Mode ConvCheckMode   .... Total+1el-Energy
 Convergence forced     ConvForced      .... 0
 Energy Change          TolE            ....  1.000e-08 Eh
 1-El. energy change                    ....  1.000e-05 Eh
 Orbital Gradient       TolG            ....  1.000e-05
 Orbital Rotation angle TolX            ....  1.000e-05
 DIIS Error             TolErr          ....  5.000e-07


Diagonalization of the overlap matrix:
Smallest eigenvalue                        ... 6.768e-06
Time for diagonalization                   ...    0.019 sec
Threshold for overlap eigenvalues          ... 1.000e-08
Number of eigenvalues below threshold      ... 0
Time for construction of square roots      ...    0.013 sec
Total time needed                          ...    0.033 sec

Time for model grid setup =    0.318 sec

------------------------------
INITIAL GUESS: MODEL POTENTIAL
------------------------------
Loading Hartree-Fock densities                     ... done
Calculating cut-offs                               ... done
Initializing the effective Hamiltonian             ... done
Setting up the integral package (SHARK)            ... done
Starting the Coulomb interaction                   ... done (   0.6 sec)
Reading the grid                                   ... done
Mapping shells                                     ... done
Starting the XC term evaluation                    ... done (   0.6 sec)
  promolecular density results
     # of electrons  =    111.994541057
     EX              =    -88.091022015
     EC              =     -3.712844781
     EX+EC           =    -91.803866796
Transforming the Hamiltonian                       ... done (   0.0 sec)
Diagonalizing the Hamiltonian                      ... done (   0.0 sec)
Back transforming the eigenvectors                 ... done (   0.0 sec)
Now organizing SCF variables                       ... done
                      ------------------
                      INITIAL GUESS DONE (   1.5 sec)
                      ------------------
-------------------
DFT GRID GENERATION
-------------------

General Integration Accuracy     IntAcc      ... 4.388
Radial Grid Type                 RadialGrid  ... OptM3 with GC (2021)
Angular Grid (max. ang.)         AngularGrid ... 4 (Lebedev-302)
Angular grid pruning method      GridPruning ... 4 (adaptive)
Weight generation scheme         WeightScheme... Becke
Basis function cutoff            BFCut       ... 1.0000e-11
Integration weight cutoff        WCut        ... 1.0000e-14
Angular grids for H and He will be reduced by one unit
Partially contracted basis set               ... off
Rotationally invariant grid construction     ... off

Total number of grid points                  ...   147017
Total number of batches                      ...     2313
Average number of points per batch           ...       63
Average number of grid points per atom       ...     4455
Time for grid setup =    1.140 sec


--------------------
CPCM SOLVATION MODEL
--------------------
CPCM parameters:
  Epsilon                                         ...      80.4000
  Refrac                                          ...       1.3300
  Rsolv                                           ...       1.3000
  Surface type                                    ... GAUSSIAN VDW
  Epsilon function type                           ...         CPCM
Radii:
 Radius for C  used is    3.8550 Bohr (=   2.0400 Ang.)
 Radius for O  used is    3.4469 Bohr (=   1.8240 Ang.)
 Radius for H  used is    2.4944 Bohr (=   1.3200 Ang.)
Calculating surface                               ...        done! (  0.0s)
GEPOL surface points                              ...         1782
GEPOL Volume                                      ...    1839.2932
GEPOL Surface-area                                ...     987.7451
Calculating surface distance matrix               ...        done! (  0.0s)
Performing Cholesky decomposition & store         ...        done! (  0.1s)
Overall time for CPCM initialization              ...                 0.1s
--------------
SCF ITERATIONS
--------------
ITER       Energy         Delta-E        Max-DP      RMS-DP      [F,P]     Damp
               ***  Starting incremental Fock matrix formation  ***
  0   -656.6303013460   0.000000000000 0.29101816  0.00113255  0.2737421 0.7000
  1   -656.8406116107  -0.210310264763 0.23459656  0.00088473  0.0889136 0.7000
                               ***Turning on DIIS***
  2   -656.9138019616  -0.073190350898 0.19776195  0.00131613  0.0272523 0.0000
  3   -657.0267802466  -0.112978284980 0.21813965  0.00071531  0.0557747 0.0000
  4   -657.0574934990  -0.030713252370 0.03942973  0.00021512  0.0280276 0.0000
  5   -657.0599404049  -0.002446905920 0.02795493  0.00011410  0.0123001 0.0000
                      *** Initiating the SOSCF procedure ***
                           *** Shutting down DIIS ***
                      *** Re-Reading the Fockian *** 
                      *** Removing any level shift *** 
ITER      Energy       Delta-E        Grad      Rot      Max-DP    RMS-DP
  6   -657.06019224  -0.0002518383  0.000280  0.000280  0.005529  0.000048
               *** Restarting incremental Fock matrix formation ***
  7   -657.06020265  -0.0000104091  0.000262  0.001044  0.004098  0.000030
  8   -657.06019341   0.0000092390  0.000670  0.000804  0.001220  0.000012
  9   -657.06020585  -0.0000124408  0.000084  0.000233  0.000900  0.000005
 10   -657.06020497   0.0000008800  0.000144  0.000150  0.000774  0.000003
 11   -657.06020608  -0.0000011059  0.000012  0.000065  0.000338  0.000003
 12   -657.06020605   0.0000000324  0.000029  0.000053  0.000174  0.000001
 13   -657.06020609  -0.0000000464  0.000005  0.000023  0.000136  0.000001
 14   -657.06020608   0.0000000091  0.000009  0.000015  0.000052  0.000000
                  ***Gradient check signals convergence***
              ***Rediagonalizing the Fockian in SOSCF/NRSCF***

               *****************************************************
               *                     SUCCESS                       *
               *           SCF CONVERGED AFTER  15 CYCLES          *
               *****************************************************


----------------
TOTAL SCF ENERGY
----------------

Total Energy       :         -657.06020610 Eh          -17879.51719 eV

Components:
Nuclear Repulsion  :          964.64111066 Eh           26249.21911 eV
Electronic Energy  :        -1621.70131676 Eh          -44128.73629 eV
One Electron Energy:        -2803.90915793 Eh          -76298.24712 eV
Two Electron Energy:         1182.20784117 Eh           32169.51082 eV
CPCM Dielectric    :           -0.01861046 Eh              -0.50642 eV

Virial components:
Potential Energy   :        -1310.99133745 Eh          -35673.88792 eV
Kinetic Energy     :          653.93113135 Eh           17794.37073 eV
Virial Ratio       :            2.00478502


DFT components:
N(Alpha)           :       56.000029179876 electrons
N(Beta)            :       56.000029179876 electrons
N(Total)           :      112.000058359752 electrons
E(X)               :      -91.011030385877 Eh       
E(C)               :       -3.715858190925 Eh       
E(XC)              :      -94.726888576803 Eh       
DFET-embed. en.    :        0.000000000000 Eh       
CPCM Solvation Model Properties:
Surface-charge          :           -0.03354809
Charge-correction       :            0.00000520 Eh               0.00014 eV
Free-energy (cav+disp)  :  This term is not implemented in the current solvation scheme

---------------
SCF CONVERGENCE
---------------

  Last Energy change         ...   -1.4659e-08  Tolerance :   1.0000e-08
  Last MAX-Density change    ...    1.4533e-04  Tolerance :   1.0000e-07
  Last RMS-Density change    ...    1.4980e-06  Tolerance :   5.0000e-09
  Last Orbital Gradient      ...    3.1777e-07  Tolerance :   1.0000e-05
  Last Orbital Rotation      ...    9.1999e-07  Tolerance :   1.0000e-05

             **** THE GBW FILE WAS UPDATED (Ibuprofeno\Ibuprofeno_TPSS_def2-TZVP\Ibuprofeno_TPSS_def2-TZVP.orcainp.gbw) ****
             **** DENSITY Ibuprofeno\Ibuprofeno_TPSS_def2-TZVP\Ibuprofeno_TPSS_def2-TZVP.orcainp.scfp WAS UPDATED ****
             **** ENERGY FILE WAS UPDATED (Ibuprofeno\Ibuprofeno_TPSS_def2-TZVP\Ibuprofeno_TPSS_def2-TZVP.orcainp.en.tmp) ****
             **** THE GBW FILE WAS UPDATED (Ibuprofeno\Ibuprofeno_TPSS_def2-TZVP\Ibuprofeno_TPSS_def2-TZVP.orcainp.gbw) ****
             **** DENSITY Ibuprofeno\Ibuprofeno_TPSS_def2-TZVP\Ibuprofeno_TPSS_def2-TZVP.orcainp.scfp WAS UPDATED ****
----------------
ORBITAL ENERGIES
----------------

  NO   OCC          E(Eh)            E(eV) 
   0   2.0000     -18.934223      -515.2264 
   1   2.0000     -18.878095      -513.6991 
   2   2.0000     -10.120935      -275.4046 
   3   2.0000     -10.014062      -272.4965 
   4   2.0000     -10.001436      -272.1529 
   5   2.0000      -9.994561      -271.9658 
   6   2.0000      -9.991959      -271.8950 
   7   2.0000      -9.991859      -271.8923 
   8   2.0000      -9.987844      -271.7831 
   9   2.0000      -9.987812      -271.7822 
  10   2.0000      -9.984901      -271.7030 
  11   2.0000      -9.982270      -271.6314 
  12   2.0000      -9.981415      -271.6081 
  13   2.0000      -9.967968      -271.2422 
  14   2.0000      -9.966962      -271.2148 
  15   2.0000      -1.032515       -28.0962 
  16   2.0000      -0.952156       -25.9095 
  17   2.0000      -0.804679       -21.8964 
  18   2.0000      -0.758903       -20.6508 
  19   2.0000      -0.735104       -20.0032 
  20   2.0000      -0.691407       -18.8141 
  21   2.0000      -0.685721       -18.6594 
  22   2.0000      -0.626622       -17.0513 
  23   2.0000      -0.623665       -16.9708 
  24   2.0000      -0.605504       -16.4766 
  25   2.0000      -0.570747       -15.5308 
  26   2.0000      -0.561312       -15.2741 
  27   2.0000      -0.536994       -14.6123 
  28   2.0000      -0.508668       -13.8416 
  29   2.0000      -0.481145       -13.0926 
  30   2.0000      -0.453147       -12.3308 
  31   2.0000      -0.432204       -11.7609 
  32   2.0000      -0.416085       -11.3222 
  33   2.0000      -0.413187       -11.2434 
  34   2.0000      -0.406602       -11.0642 
  35   2.0000      -0.403996       -10.9933 
  36   2.0000      -0.391313       -10.6482 
  37   2.0000      -0.386477       -10.5166 
  38   2.0000      -0.377779       -10.2799 
  39   2.0000      -0.367862       -10.0100 
  40   2.0000      -0.361660        -9.8413 
  41   2.0000      -0.347707        -9.4616 
  42   2.0000      -0.341319        -9.2878 
  43   2.0000      -0.331267        -9.0142 
  44   2.0000      -0.326779        -8.8921 
  45   2.0000      -0.325550        -8.8587 
  46   2.0000      -0.316126        -8.6022 
  47   2.0000      -0.304101        -8.2750 
  48   2.0000      -0.300873        -8.1872 
  49   2.0000      -0.292057        -7.9473 
  50   2.0000      -0.286852        -7.8056 
  51   2.0000      -0.285080        -7.7574 
  52   2.0000      -0.278077        -7.5669 
  53   2.0000      -0.248687        -6.7671 
  54   2.0000      -0.233208        -6.3459 
  55   2.0000      -0.217018        -5.9054 
  56   0.0000      -0.044871        -1.2210 
  57   0.0000      -0.041092        -1.1182 
  58   0.0000      -0.035658        -0.9703 
  59   0.0000       0.023451         0.6381 
  60   0.0000       0.036273         0.9871 
  61   0.0000       0.050629         1.3777 
  62   0.0000       0.054190         1.4746 
  63   0.0000       0.062917         1.7121 
  64   0.0000       0.068283         1.8581 
  65   0.0000       0.071171         1.9367 
  66   0.0000       0.079065         2.1515 
  67   0.0000       0.090104         2.4519 
  68   0.0000       0.092776         2.5246 
  69   0.0000       0.099945         2.7196 
  70   0.0000       0.101814         2.7705 
  71   0.0000       0.110318         3.0019 
  72   0.0000       0.117193         3.1890 
  73   0.0000       0.122963         3.3460 
  74   0.0000       0.132414         3.6032 
  75   0.0000       0.136931         3.7261 
  76   0.0000       0.140629         3.8267 
  77   0.0000       0.143158         3.8955 
  78   0.0000       0.150505         4.0955 
  79   0.0000       0.151902         4.1335 
  80   0.0000       0.155704         4.2369 
  81   0.0000       0.157740         4.2923 
  82   0.0000       0.166859         4.5405 
  83   0.0000       0.173779         4.7288 
  84   0.0000       0.190804         5.1920 
  85   0.0000       0.191659         5.2153 
  86   0.0000       0.193706         5.2710 
  87   0.0000       0.202155         5.5009 
  88   0.0000       0.205006         5.5785 
  89   0.0000       0.212965         5.7951 
  90   0.0000       0.216012         5.8780 
  91   0.0000       0.228584         6.2201 
  92   0.0000       0.231074         6.2878 
  93   0.0000       0.238338         6.4855 
  94   0.0000       0.244909         6.6643 
  95   0.0000       0.250273         6.8103 
  96   0.0000       0.252995         6.8843 
  97   0.0000       0.266048         7.2395 
  98   0.0000       0.269929         7.3452 
  99   0.0000       0.271222         7.3803 
 100   0.0000       0.275710         7.5025 
 101   0.0000       0.280917         7.6441 
 102   0.0000       0.288366         7.8468 
 103   0.0000       0.298916         8.1339 
 104   0.0000       0.301510         8.2045 
 105   0.0000       0.309428         8.4200 
 106   0.0000       0.312902         8.5145 
 107   0.0000       0.313619         8.5340 
 108   0.0000       0.322121         8.7654 
 109   0.0000       0.333708         9.0806 
 110   0.0000       0.340575         9.2675 
 111   0.0000       0.352184         9.5834 
 112   0.0000       0.353096         9.6082 
 113   0.0000       0.363906         9.9024 
 114   0.0000       0.372111        10.1257 
 115   0.0000       0.374940        10.2026 
 116   0.0000       0.375674        10.2226 
 117   0.0000       0.386061        10.5053 
 118   0.0000       0.389925        10.6104 
 119   0.0000       0.396615        10.7924 
 120   0.0000       0.402572        10.9546 
 121   0.0000       0.404906        11.0181 
 122   0.0000       0.409124        11.1328 
 123   0.0000       0.411770        11.2048 
 124   0.0000       0.415666        11.3108 
 125   0.0000       0.419069        11.4035 
 126   0.0000       0.424575        11.5533 
 127   0.0000       0.432288        11.7632 
 128   0.0000       0.435311        11.8454 
 129   0.0000       0.445456        12.1215 
 130   0.0000       0.448101        12.1934 
 131   0.0000       0.449505        12.2317 
 132   0.0000       0.452678        12.3180 
 133   0.0000       0.453045        12.3280 
 134   0.0000       0.461652        12.5622 
 135   0.0000       0.464021        12.6267 
 136   0.0000       0.467088        12.7101 
 137   0.0000       0.472873        12.8675 
 138   0.0000       0.476912        12.9774 
 139   0.0000       0.481945        13.1144 
 140   0.0000       0.488823        13.3016 
 141   0.0000       0.497600        13.5404 
 142   0.0000       0.500673        13.6240 
 143   0.0000       0.516204        14.0466 
 144   0.0000       0.528507        14.3814 
 145   0.0000       0.534765        14.5517 
 146   0.0000       0.543225        14.7819 
 147   0.0000       0.554060        15.0767 
 148   0.0000       0.563392        15.3307 
 149   0.0000       0.570943        15.5361 
 150   0.0000       0.575516        15.6606 
 151   0.0000       0.589698        16.0465 
 152   0.0000       0.590781        16.0760 
 153   0.0000       0.597766        16.2660 
 154   0.0000       0.605740        16.4830 
 155   0.0000       0.619327        16.8527 
 156   0.0000       0.620739        16.8912 
 157   0.0000       0.635105        17.2821 
 158   0.0000       0.639513        17.4020 
 159   0.0000       0.655324        17.8323 
 160   0.0000       0.661980        18.0134 
 161   0.0000       0.668057        18.1788 
 162   0.0000       0.675455        18.3801 
 163   0.0000       0.694309        18.8931 
 164   0.0000       0.701043        19.0763 
 165   0.0000       0.713474        19.4146 
 166   0.0000       0.721217        19.6253 
 167   0.0000       0.724870        19.7247 
 168   0.0000       0.727771        19.8037 
 169   0.0000       0.751693        20.4546 
 170   0.0000       0.761018        20.7084 
 171   0.0000       0.762153        20.7392 
 172   0.0000       0.779245        21.2043 
 173   0.0000       0.791231        21.5305 
 174   0.0000       0.802131        21.8271 
 175   0.0000       0.812513        22.1096 
 176   0.0000       0.821277        22.3481 
 177   0.0000       0.824800        22.4440 
 178   0.0000       0.841982        22.9115 
 179   0.0000       0.845947        23.0194 
 180   0.0000       0.850947        23.1554 
 181   0.0000       0.857961        23.3463 
 182   0.0000       0.863620        23.5003 
 183   0.0000       0.874174        23.7875 
 184   0.0000       0.893416        24.3111 
 185   0.0000       0.901114        24.5206 
 186   0.0000       0.907042        24.6819 
 187   0.0000       0.914265        24.8784 
 188   0.0000       0.923022        25.1167 
 189   0.0000       0.931513        25.3477 
 190   0.0000       0.951394        25.8887 
 191   0.0000       0.958808        26.0905 
 192   0.0000       0.968156        26.3449 
 193   0.0000       0.990790        26.9608 
 194   0.0000       0.998320        27.1657 
 195   0.0000       0.999771        27.2051 
 196   0.0000       1.008681        27.4476 
 197   0.0000       1.020899        27.7801 
 198   0.0000       1.039174        28.2774 
 199   0.0000       1.043938        28.4070 
 200   0.0000       1.056035        28.7362 
 201   0.0000       1.061369        28.8813 
 202   0.0000       1.068848        29.0848 
 203   0.0000       1.078306        29.3422 
 204   0.0000       1.092213        29.7206 
 205   0.0000       1.110171        30.2093 
 206   0.0000       1.115014        30.3411 
 207   0.0000       1.128762        30.7152 
 208   0.0000       1.138268        30.9738 
 209   0.0000       1.151977        31.3469 
 210   0.0000       1.164110        31.6771 
 211   0.0000       1.173678        31.9374 
 212   0.0000       1.189051        32.3557 
 213   0.0000       1.204239        32.7690 
 214   0.0000       1.207826        32.8666 
 215   0.0000       1.221975        33.2516 
 216   0.0000       1.227405        33.3994 
 217   0.0000       1.240602        33.7585 
 218   0.0000       1.246905        33.9300 
 219   0.0000       1.265454        34.4348 
 220   0.0000       1.267412        34.4880 
 221   0.0000       1.281105        34.8606 
 222   0.0000       1.300862        35.3983 
 223   0.0000       1.304866        35.5072 
 224   0.0000       1.316345        35.8196 
 225   0.0000       1.331114        36.2215 
 226   0.0000       1.340009        36.4635 
 227   0.0000       1.355485        36.8846 
 228   0.0000       1.369193        37.2576 
 229   0.0000       1.387931        37.7675 
 230   0.0000       1.403712        38.1970 
 231   0.0000       1.420940        38.6657 
 232   0.0000       1.424857        38.7723 
 233   0.0000       1.435399        39.0592 
 234   0.0000       1.447753        39.3953 
 235   0.0000       1.465532        39.8792 
 236   0.0000       1.469263        39.9807 
 237   0.0000       1.476232        40.1703 
 238   0.0000       1.503018        40.8992 
 239   0.0000       1.505913        40.9780 
 240   0.0000       1.521749        41.4089 
 241   0.0000       1.528985        41.6058 
 242   0.0000       1.535415        41.7808 
 243   0.0000       1.540765        41.9263 
 244   0.0000       1.544187        42.0195 
 245   0.0000       1.554397        42.2973 
 246   0.0000       1.564313        42.5671 
 247   0.0000       1.569503        42.7083 
 248   0.0000       1.580562        43.0093 
 249   0.0000       1.583083        43.0779 
 250   0.0000       1.590680        43.2846 
 251   0.0000       1.593398        43.3586 
 252   0.0000       1.606090        43.7039 
 253   0.0000       1.608458        43.7684 
 254   0.0000       1.613622        43.9089 
 255   0.0000       1.622549        44.1518 
 256   0.0000       1.635898        44.5151 
 257   0.0000       1.637886        44.5691 
 258   0.0000       1.647067        44.8190 
 259   0.0000       1.655440        45.0468 
 260   0.0000       1.659132        45.1473 
 261   0.0000       1.661924        45.2232 
 262   0.0000       1.682612        45.7862 
 263   0.0000       1.705516        46.4094 
 264   0.0000       1.709511        46.5182 
 265   0.0000       1.713239        46.6196 
 266   0.0000       1.736715        47.2584 
 267   0.0000       1.746256        47.5180 
 268   0.0000       1.752011        47.6747 
 269   0.0000       1.766316        48.0639 
 270   0.0000       1.768856        48.1330 
 271   0.0000       1.780062        48.4379 
 272   0.0000       1.789230        48.6874 
 273   0.0000       1.810092        49.2551 
 274   0.0000       1.821789        49.5734 
 275   0.0000       1.845117        50.2082 
 276   0.0000       1.849760        50.3345 
 277   0.0000       1.862866        50.6912 
 278   0.0000       1.868343        50.8402 
 279   0.0000       1.885926        51.3187 
 280   0.0000       1.897614        51.6367 
 281   0.0000       1.909381        51.9569 
 282   0.0000       1.926980        52.4358 
 283   0.0000       1.939398        52.7737 
 284   0.0000       1.946492        52.9667 
 285   0.0000       1.963586        53.4319 
 286   0.0000       1.970876        53.6303 
 287   0.0000       1.985182        54.0195 
 288   0.0000       1.997045        54.3424 
 289   0.0000       2.019795        54.9614 
 290   0.0000       2.031681        55.2848 
 291   0.0000       2.055789        55.9409 
 292   0.0000       2.064563        56.1796 
 293   0.0000       2.079021        56.5730 
 294   0.0000       2.092797        56.9479 
 295   0.0000       2.099647        57.1343 
 296   0.0000       2.102538        57.2130 
 297   0.0000       2.111382        57.4536 
 298   0.0000       2.125738        57.8443 
 299   0.0000       2.130536        57.9748 
 300   0.0000       2.144708        58.3605 
 301   0.0000       2.161312        58.8123 
 302   0.0000       2.165177        58.9175 
 303   0.0000       2.175800        59.2065 
 304   0.0000       2.177333        59.2482 
 305   0.0000       2.184010        59.4299 
 306   0.0000       2.196261        59.7633 
 307   0.0000       2.210639        60.1546 
 308   0.0000       2.232530        60.7502 
 309   0.0000       2.249563        61.2137 
 310   0.0000       2.256695        61.4078 
 311   0.0000       2.264677        61.6250 
 312   0.0000       2.286000        62.2052 
 313   0.0000       2.304706        62.7142 
 314   0.0000       2.308604        62.8203 
 315   0.0000       2.328422        63.3596 
 316   0.0000       2.335333        63.5476 
 317   0.0000       2.338339        63.6294 
 318   0.0000       2.359436        64.2035 
 319   0.0000       2.369592        64.4799 
 320   0.0000       2.372321        64.5541 
 321   0.0000       2.384066        64.8737 
 322   0.0000       2.387596        64.9698 
 323   0.0000       2.408142        65.5289 
 324   0.0000       2.410573        65.5950 
 325   0.0000       2.412985        65.6607 
 326   0.0000       2.422422        65.9175 
 327   0.0000       2.431422        66.1624 
 328   0.0000       2.448596        66.6297 
 329   0.0000       2.471948        67.2651 
 330   0.0000       2.480032        67.4851 
 331   0.0000       2.490310        67.7648 
 332   0.0000       2.504877        68.1612 
 333   0.0000       2.522763        68.6479 
 334   0.0000       2.529092        68.8201 
 335   0.0000       2.540461        69.1295 
 336   0.0000       2.552094        69.4460 
 337   0.0000       2.566054        69.8259 
 338   0.0000       2.570978        69.9599 
 339   0.0000       2.575810        70.0913 
 340   0.0000       2.584657        70.3321 
 341   0.0000       2.592703        70.5510 
 342   0.0000       2.596572        70.6563 
 343   0.0000       2.608327        70.9762 
 344   0.0000       2.611593        71.0650 
 345   0.0000       2.617251        71.2190 
 346   0.0000       2.622424        71.3598 
 347   0.0000       2.628500        71.5251 
 348   0.0000       2.644355        71.9566 
 349   0.0000       2.645151        71.9782 
 350   0.0000       2.664287        72.4989 
 351   0.0000       2.676035        72.8186 
 352   0.0000       2.677846        72.8679 
 353   0.0000       2.694648        73.3251 
 354   0.0000       2.703169        73.5570 
 355   0.0000       2.711504        73.7838 
 356   0.0000       2.716420        73.9175 
 357   0.0000       2.721557        74.0573 
 358   0.0000       2.734458        74.4084 
 359   0.0000       2.745647        74.7129 
 360   0.0000       2.763109        75.1880 
 361   0.0000       2.764905        75.2369 
 362   0.0000       2.769614        75.3650 
 363   0.0000       2.781911        75.6997 
 364   0.0000       2.786273        75.8184 
 365   0.0000       2.804153        76.3049 
 366   0.0000       2.811874        76.5150 
 367   0.0000       2.821238        76.7698 
 368   0.0000       2.828706        76.9730 
 369   0.0000       2.837971        77.2251 
 370   0.0000       2.850546        77.5673 
 371   0.0000       2.861406        77.8628 
 372   0.0000       2.863659        77.9241 
 373   0.0000       2.868408        78.0533 
 374   0.0000       2.881676        78.4144 
 375   0.0000       2.886556        78.5472 
 376   0.0000       2.911032        79.2132 
 377   0.0000       2.923567        79.5543 
 378   0.0000       2.943745        80.1034 
 379   0.0000       2.951584        80.3167 
 380   0.0000       2.971712        80.8644 
 381   0.0000       2.981842        81.1400 
 382   0.0000       2.986832        81.2758 
 383   0.0000       2.992499        81.4300 
 384   0.0000       3.009638        81.8964 
 385   0.0000       3.014379        82.0254 
 386   0.0000       3.026576        82.3573 
 387   0.0000       3.052649        83.0668 
 388   0.0000       3.056598        83.1743 
 389   0.0000       3.063058        83.3500 
 390   0.0000       3.079817        83.8061 
 391   0.0000       3.085253        83.9540 
 392   0.0000       3.091066        84.1122 
 393   0.0000       3.100238        84.3618 
 394   0.0000       3.113243        84.7156 
 395   0.0000       3.120676        84.9179 
 396   0.0000       3.131635        85.2161 
 397   0.0000       3.145363        85.5897 
 398   0.0000       3.148076        85.6635 
 399   0.0000       3.157149        85.9104 
 400   0.0000       3.158520        85.9477 
 401   0.0000       3.171820        86.3096 
 402   0.0000       3.177744        86.4708 
 403   0.0000       3.179526        86.5193 
 404   0.0000       3.198245        87.0287 
 405   0.0000       3.205158        87.2168 
 406   0.0000       3.220855        87.6439 
 407   0.0000       3.229122        87.8689 
 408   0.0000       3.239730        88.1575 
 409   0.0000       3.246467        88.3408 
 410   0.0000       3.268369        88.9368 
 411   0.0000       3.272796        89.0573 
 412   0.0000       3.289862        89.5217 
 413   0.0000       3.295794        89.6831 
 414   0.0000       3.299259        89.7774 
 415   0.0000       3.302414        89.8633 
 416   0.0000       3.315631        90.2229 
 417   0.0000       3.327431        90.5440 
 418   0.0000       3.332234        90.6747 
 419   0.0000       3.340382        90.8964 
 420   0.0000       3.345618        91.0389 
 421   0.0000       3.360114        91.4333 
 422   0.0000       3.368247        91.6546 
 423   0.0000       3.373726        91.8038 
 424   0.0000       3.383566        92.0715 
 425   0.0000       3.393718        92.3478 
 426   0.0000       3.399170        92.4961 
 427   0.0000       3.404102        92.6303 
 428   0.0000       3.408806        92.7583 
 429   0.0000       3.413364        92.8824 
 430   0.0000       3.432616        93.4062 
 431   0.0000       3.435769        93.4920 
 432   0.0000       3.446909        93.7952 
 433   0.0000       3.456787        94.0640 
 434   0.0000       3.464764        94.2810 
 435   0.0000       3.475108        94.5625 
 436   0.0000       3.494611        95.0932 
 437   0.0000       3.507378        95.4406 
 438   0.0000       3.514546        95.6356 
 439   0.0000       3.526377        95.9576 
 440   0.0000       3.530101        96.0589 
 441   0.0000       3.541663        96.3735 
 442   0.0000       3.549609        96.5898 
 443   0.0000       3.559738        96.8654 
 444   0.0000       3.579515        97.4036 
 445   0.0000       3.595891        97.8492 
 446   0.0000       3.599881        97.9578 
 447   0.0000       3.608251        98.1855 
 448   0.0000       3.618759        98.4714 
 449   0.0000       3.629600        98.7664 
 450   0.0000       3.649590        99.3104 
 451   0.0000       3.654332        99.4394 
 452   0.0000       3.667311        99.7926 
 453   0.0000       3.675503       100.0155 
 454   0.0000       3.678883       100.1075 
 455   0.0000       3.691501       100.4508 
 456   0.0000       3.702433       100.7483 
 457   0.0000       3.713457       101.0483 
 458   0.0000       3.739733       101.7633 
 459   0.0000       3.780538       102.8737 
 460   0.0000       3.782829       102.9360 
 461   0.0000       3.800626       103.4203 
 462   0.0000       3.822105       104.0048 
 463   0.0000       3.853097       104.8481 
 464   0.0000       3.878893       105.5501 
 465   0.0000       3.886243       105.7500 
 466   0.0000       3.910885       106.4206 
 467   0.0000       3.925463       106.8173 
 468   0.0000       3.935851       107.0999 
 469   0.0000       3.954776       107.6149 
 470   0.0000       3.973913       108.1357 
 471   0.0000       4.004704       108.9735 
 472   0.0000       4.019783       109.3839 
 473   0.0000       4.029303       109.6429 
 474   0.0000       4.038441       109.8916 
 475   0.0000       4.046972       110.1237 
 476   0.0000       4.052229       110.2668 
 477   0.0000       4.062729       110.5525 
 478   0.0000       4.076184       110.9186 
 479   0.0000       4.081756       111.0702 
 480   0.0000       4.107741       111.7773 
 481   0.0000       4.128201       112.3340 
 482   0.0000       4.145026       112.7919 
 483   0.0000       4.162500       113.2674 
 484   0.0000       4.181560       113.7860 
 485   0.0000       4.202544       114.3570 
 486   0.0000       4.210305       114.5682 
 487   0.0000       4.229909       115.1017 
 488   0.0000       4.248394       115.6047 
 489   0.0000       4.259536       115.9079 
 490   0.0000       4.277394       116.3938 
 491   0.0000       4.284463       116.5862 
 492   0.0000       4.290807       116.7588 
 493   0.0000       4.330822       117.8476 
 494   0.0000       4.350567       118.3850 
 495   0.0000       4.376073       119.0790 
 496   0.0000       4.380760       119.2065 
 497   0.0000       4.426688       120.4563 
 498   0.0000       4.433724       120.6478 
 499   0.0000       4.453428       121.1839 
 500   0.0000       4.462033       121.4181 
 501   0.0000       4.482509       121.9753 
 502   0.0000       4.489513       122.1658 
 503   0.0000       4.510509       122.7372 
 504   0.0000       4.543435       123.6332 
 505   0.0000       4.546091       123.7054 
 506   0.0000       4.576751       124.5397 
 507   0.0000       4.583083       124.7120 
 508   0.0000       4.611296       125.4797 
 509   0.0000       4.620721       125.7362 
 510   0.0000       4.642601       126.3316 
 511   0.0000       4.686277       127.5201 
 512   0.0000       4.688821       127.5893 
 513   0.0000       4.714563       128.2898 
 514   0.0000       4.732391       128.7749 
 515   0.0000       4.753230       129.3420 
 516   0.0000       4.791882       130.3937 
 517   0.0000       4.827752       131.3698 
 518   0.0000       4.851256       132.0094 
 519   0.0000       4.867219       132.4438 
 520   0.0000       4.890542       133.0784 
 521   0.0000       4.904157       133.4489 
 522   0.0000       4.945203       134.5658 
 523   0.0000       4.970407       135.2517 
 524   0.0000       4.996436       135.9599 
 525   0.0000       5.030724       136.8930 
 526   0.0000       5.056292       137.5887 
 527   0.0000       5.143687       139.9668 
 528   0.0000       5.171569       140.7255 
 529   0.0000       5.184854       141.0870 
 530   0.0000       5.225448       142.1917 
 531   0.0000       5.258548       143.0924 
 532   0.0000       5.299074       144.1951 
 533   0.0000       5.318401       144.7211 
 534   0.0000       5.341252       145.3429 
 535   0.0000       5.454001       148.4109 
 536   0.0000       5.462217       148.6345 
 537   0.0000       5.555185       151.1643 
 538   0.0000       5.562771       151.3707 
 539   0.0000       5.624742       153.0570 
 540   0.0000       5.724044       155.7592 
 541   0.0000       5.738417       156.1503 
 542   0.0000       5.849640       159.1768 
 543   0.0000       5.889669       160.2660 
 544   0.0000       6.074989       165.3089 
 545   0.0000       6.201125       168.7412 
 546   0.0000       6.296494       171.3363 
 547   0.0000       6.320138       171.9797 
 548   0.0000       6.385822       173.7671 
 549   0.0000       6.448283       175.4667 
[...]

----------------------
LOEWDIN ATOMIC CHARGES
----------------------
   0 C :   -0.284680
   1 C :   -0.294085
   2 C :   -0.286302
   3 C :   -0.191186
   4 C :   -0.141248
   5 C :   -0.108847
   6 C :   -0.114553
   7 C :   -0.146772
   8 C :   -0.106299
   9 C :   -0.111737
  10 C :   -0.210797
  11 C :   -0.259716
  12 C :   -0.465596
  13 O :    0.101972
  14 O :    0.068486
  15 H :    0.120106
  16 H :    0.120571
  17 H :    0.120213
  18 H :    0.148451
  19 H :    0.120231
  20 H :    0.119997
  21 H :    0.119320
  22 H :    0.145891
  23 H :    0.148262
  24 H :    0.152132
  25 H :    0.152921
  26 H :    0.154754
  27 H :    0.151363
  28 H :    0.183533
  29 H :    0.126190
  30 H :    0.127425
  31 H :    0.125561
  32 H :    0.214439

-------------------------------
LOEWDIN REDUCED ORBITAL CHARGES
-------------------------------
  0 C s       :     2.835103  s :     2.835103
      pz      :     1.066471  p :     3.158921
      px      :     1.061754
      py      :     1.030696
      dz2     :     0.039384  d :     0.265489
      dxz     :     0.024916
      dyz     :     0.079396
      dx2y2   :     0.067720
      dxy     :     0.054073
      f0      :     0.001991  f :     0.025167
      f+1     :     0.003257
      f-1     :     0.004089
      f+2     :     0.002797
      f-2     :     0.003614
      f+3     :     0.005847
      f-3     :     0.003571
  1 C s       :     2.746168  s :     2.746168
      pz      :     0.982580  p :     2.974013
      px      :     0.994296
      py      :     0.997137
      dz2     :     0.092796  d :     0.521687
      dxz     :     0.101857
      dyz     :     0.094611
      dx2y2   :     0.127891
      dxy     :     0.104532
      f0      :     0.006114  f :     0.052217
      f+1     :     0.006206
      f-1     :     0.006489
      f+2     :     0.008707
      f-2     :     0.005911
      f+3     :     0.008779
      f-3     :     0.010011
  2 C s       :     2.837046  s :     2.837046
      pz      :     1.065408  p :     3.157841
      px      :     1.029167
      py      :     1.063266
      dz2     :     0.031040  d :     0.266284
      dxz     :     0.083192
      dyz     :     0.030191
      dx2y2   :     0.062932
      dxy     :     0.058928
      f0      :     0.002493  f :     0.025130
      f+1     :     0.004346
      f-1     :     0.002200
      f+2     :     0.003353
      f-2     :     0.002966
      f+3     :     0.003849
      f-3     :     0.005923
  3 C s       :     2.772337  s :     2.772337
      pz      :     1.012341  p :     3.002048
      px      :     0.979975
      py      :     1.009732
      dz2     :     0.083653  d :     0.379406
      dxz     :     0.090646
      dyz     :     0.041025
      dx2y2   :     0.092352
      dxy     :     0.071730
      f0      :     0.004609  f :     0.037396
      f+1     :     0.006063
      f-1     :     0.004553
      f+2     :     0.006302
      f-2     :     0.004457
      f+3     :     0.005149
      f-3     :     0.006262
  4 C s       :     2.719080  s :     2.719080
      pz      :     0.985452  p :     2.849803
      px      :     0.980369
      py      :     0.883982
      dz2     :     0.114363  d :     0.516242
      dxz     :     0.137549
      dyz     :     0.070800
      dx2y2   :     0.098308
      dxy     :     0.095223
      f0      :     0.008876  f :     0.056123
      f+1     :     0.008529
      f-1     :     0.006583
      f+2     :     0.011506
      f-2     :     0.006939
      f+3     :     0.005700
      f-3     :     0.007990
  5 C s       :     2.765021  s :     2.765021
      pz      :     0.965614  p :     2.920726
      px      :     1.037693
      py      :     0.917419
      dz2     :     0.065118  d :     0.381410
      dxz     :     0.118049
      dyz     :     0.041239
      dx2y2   :     0.073032
      dxy     :     0.083972
      f0      :     0.005928  f :     0.041689
      f+1     :     0.006317
      f-1     :     0.004328
      f+2     :     0.007984
      f-2     :     0.004557
      f+3     :     0.005363
      f-3     :     0.007213
  6 C s       :     2.765978  s :     2.765978
      pz      :     0.968799  p :     2.919479
      px      :     1.034112
      py      :     0.916568
      dz2     :     0.063899  d :     0.387146
      dxz     :     0.131043
      dyz     :     0.042294
      dx2y2   :     0.064166
      dxy     :     0.085744
      f0      :     0.007506  f :     0.041950
      f+1     :     0.005426
      f-1     :     0.004786
      f+2     :     0.007937
      f-2     :     0.004180
      f+3     :     0.004822
      f-3     :     0.007293
  7 C s       :     2.715050  s :     2.715050
      pz      :     1.001678  p :     2.862800
      px      :     0.950714
      py      :     0.910408
      dz2     :     0.118120  d :     0.513423
      dxz     :     0.133684
      dyz     :     0.073112
      dx2y2   :     0.100539
      dxy     :     0.087969
      f0      :     0.008580  f :     0.055499
      f+1     :     0.008613
      f-1     :     0.006619
      f+2     :     0.011363
      f-2     :     0.006920
      f+3     :     0.005772
      f-3     :     0.007633
  8 C s       :     2.763584  s :     2.763584
      pz      :     0.964551  p :     2.916639
      px      :     1.038439
      py      :     0.913648
      dz2     :     0.065330  d :     0.384020
      dxz     :     0.120293
      dyz     :     0.040894
      dx2y2   :     0.071567
      dxy     :     0.085935
      f0      :     0.006066  f :     0.042057
      f+1     :     0.006500
      f-1     :     0.004318
      f+2     :     0.007984
      f-2     :     0.004627
      f+3     :     0.005422
      f-3     :     0.007139
  9 C s       :     2.765964  s :     2.765964
      pz      :     0.972017  p :     2.920634
      px      :     1.032004
      py      :     0.916613
      dz2     :     0.063358  d :     0.383397
      dxz     :     0.131202
      dyz     :     0.042217
      dx2y2   :     0.063931
      dxy     :     0.082688
      f0      :     0.007332  f :     0.041742
      f+1     :     0.005394
      f-1     :     0.004777
      f+2     :     0.008032
      f-2     :     0.004168
      f+3     :     0.004788
      f-3     :     0.007250
 10 C s       :     2.734801  s :     2.734801
      pz      :     1.004509  p :     2.945495
      px      :     0.968137
      py      :     0.972850
      dz2     :     0.098530  d :     0.480840
      dxz     :     0.092545
      dyz     :     0.080118
      dx2y2   :     0.107810
      dxy     :     0.101837
      f0      :     0.006509  f :     0.049661
      f+1     :     0.006713
      f-1     :     0.006332
      f+2     :     0.007398
      f-2     :     0.006270
      f+3     :     0.007248
      f-3     :     0.009190
 11 C s       :     2.832888  s :     2.832888
      pz      :     1.034127  p :     3.145720
      px      :     1.061459
      py      :     1.050134
      dz2     :     0.080887  d :     0.256069
      dxz     :     0.037470
      dyz     :     0.046122
      dx2y2   :     0.067545
      dxy     :     0.024045
      f0      :     0.003280  f :     0.025038
      f+1     :     0.004693
      f-1     :     0.004903
      f+2     :     0.002795
      f-2     :     0.004528
      f+3     :     0.003719
      f-3     :     0.001120
 12 C s       :     2.778603  s :     2.778603
      pz      :     0.828140  p :     2.630028
      px      :     0.852872
      py      :     0.949016
      dz2     :     0.205913  d :     0.910852
      dxz     :     0.154396
      dyz     :     0.198931
      dx2y2   :     0.159908
      dxy     :     0.191703
      f0      :     0.017233  f :     0.146112
      f+1     :     0.021296
      f-1     :     0.019834
      f+2     :     0.029664
      f-2     :     0.021118
      f+3     :     0.018924
      f-3     :     0.018044
 13 O s       :     3.347869  s :     3.347869
      pz      :     1.443143  p :     4.476955
      px      :     1.455114
      py      :     1.578698
      dz2     :     0.009234  d :     0.068488
      dxz     :     0.015565
      dyz     :     0.020505
      dx2y2   :     0.010471
      dxy     :     0.012713
      f0      :     0.000758  f :     0.004716
      f+1     :     0.000459
      f-1     :     0.000715
      f+2     :     0.000684
      f-2     :     0.001182
      f+3     :     0.000231
      f-3     :     0.000686
 14 O s       :     3.410316  s :     3.410316
      pz      :     1.455289  p :     4.451063
      px      :     1.415523
      py      :     1.580251
      dz2     :     0.011048  d :     0.064179
      dxz     :     0.019896
      dyz     :     0.009877
      dx2y2   :     0.010307
      dxy     :     0.013052
      f0      :     0.000609  f :     0.005955
      f+1     :     0.001293
      f-1     :     0.000340
      f+2     :     0.001196
      f-2     :     0.001305
      f+3     :     0.000571
      f-3     :     0.000641
 15 H s       :     0.819995  s :     0.819995
      pz      :     0.024447  p :     0.059899
      px      :     0.015587
      py      :     0.019864
 16 H s       :     0.819725  s :     0.819725
      pz      :     0.028253  p :     0.059704
      px      :     0.017423
      py      :     0.014028
 17 H s       :     0.819025  s :     0.819025
      pz      :     0.013372  p :     0.060762
      px      :     0.034120
      py      :     0.013270
 18 H s       :     0.795277  s :     0.795277
      pz      :     0.026344  p :     0.056272
      px      :     0.016410
      py      :     0.013518
 19 H s       :     0.820020  s :     0.820020
      pz      :     0.028261  p :     0.059749
      px      :     0.017544
      py      :     0.013944
 20 H s       :     0.820082  s :     0.820082
      pz      :     0.024140  p :     0.059921
      px      :     0.015285
      py      :     0.020495
 21 H s       :     0.820834  s :     0.820834
      pz      :     0.014196  p :     0.059846
      px      :     0.013270
      py      :     0.032380
 22 H s       :     0.796592  s :     0.796592
      pz      :     0.028504  p :     0.057516
      px      :     0.014951
      py      :     0.014062
 23 H s       :     0.793867  s :     0.793867
      pz      :     0.013997  p :     0.057871
      px      :     0.013612
      py      :     0.030262
 24 H s       :     0.789294  s :     0.789294
      pz      :     0.026000  p :     0.058574
      px      :     0.014835
      py      :     0.017739
 25 H s       :     0.788363  s :     0.788363
      pz      :     0.023077  p :     0.058716
      px      :     0.018234
      py      :     0.017405
 26 H s       :     0.786377  s :     0.786377
      pz      :     0.026370  p :     0.058869
      px      :     0.014833
      py      :     0.017666
 27 H s       :     0.790058  s :     0.790058
      pz      :     0.023136  p :     0.058579
      px      :     0.018167
      py      :     0.017277
 28 H s       :     0.759264  s :     0.759264
      pz      :     0.026715  p :     0.057204
      px      :     0.014480
      py      :     0.016009
 29 H s       :     0.813194  s :     0.813194
      pz      :     0.028340  p :     0.060616
      px      :     0.015566
      py      :     0.016709
 30 H s       :     0.812181  s :     0.812181
      pz      :     0.012688  p :     0.060394
      px      :     0.015511
      py      :     0.032195
 31 H s       :     0.813566  s :     0.813566
      pz      :     0.012597  p :     0.060873
      px      :     0.035464
      py      :     0.012812
 32 H s       :     0.638320  s :     0.638320
      pz      :     0.041336  p :     0.147241
      px      :     0.060488
      py      :     0.045417


                      *****************************
                      * MAYER POPULATION ANALYSIS *
                      *****************************

  NA   - Mulliken gross atomic population
  ZA   - Total nuclear charge
  QA   - Mulliken gross atomic charge
  VA   - Mayer's total valence
  BVA  - Mayer's bonded valence
  FA   - Mayer's free valence

  ATOM       NA         ZA         QA         VA         BVA        FA
  0 C      6.3871     6.0000    -0.3871     3.9354     3.9354     0.0000
  1 C      6.0151     6.0000    -0.0151     3.9641     3.9641    -0.0000
  2 C      6.3618     6.0000    -0.3618     3.9036     3.9036     0.0000
  3 C      6.1742     6.0000    -0.1742     3.8523     3.8523    -0.0000
  4 C      5.8323     6.0000     0.1677     3.6902     3.6902    -0.0000
  5 C      6.2223     6.0000    -0.2223     3.9096     3.9096     0.0000
  6 C      6.1558     6.0000    -0.1558     3.8913     3.8913     0.0000
  7 C      6.0378     6.0000    -0.0378     3.7929     3.7929     0.0000
  8 C      6.1717     6.0000    -0.1717     3.8988     3.8988     0.0000
  9 C      6.2052     6.0000    -0.2052     3.9185     3.9185    -0.0000
 10 C      5.9438     6.0000     0.0562     3.6676     3.6676     0.0000
 11 C      6.3950     6.0000    -0.3950     3.9544     3.9544    -0.0000
 12 C      5.7557     6.0000     0.2443     4.3959     4.3959     0.0000
 13 O      8.3483     8.0000    -0.3483     2.1170     2.1170    -0.0000
 14 O      8.3587     8.0000    -0.3587     2.1492     2.1492    -0.0000
 15 H      0.8780     1.0000     0.1220     0.9695     0.9695     0.0000
 16 H      0.8918     1.0000     0.1082     0.9794     0.9794     0.0000
 17 H      0.8720     1.0000     0.1280     0.9696     0.9696    -0.0000
 18 H      0.9288     1.0000     0.0712     0.9670     0.9670    -0.0000
 19 H      0.8889     1.0000     0.1111     0.9786     0.9786    -0.0000
 20 H      0.8780     1.0000     0.1220     0.9703     0.9703    -0.0000
 21 H      0.8800     1.0000     0.1200     0.9729     0.9729     0.0000
 22 H      0.8904     1.0000     0.1096     0.9781     0.9781    -0.0000
 23 H      0.8930     1.0000     0.1070     0.9699     0.9699     0.0000
 24 H      0.8800     1.0000     0.1200     0.9715     0.9715     0.0000
 25 H      0.8790     1.0000     0.1210     0.9742     0.9742     0.0000
 26 H      0.8741     1.0000     0.1259     0.9732     0.9732     0.0000
 27 H      0.8843     1.0000     0.1157     0.9748     0.9748    -0.0000
 28 H      0.8793     1.0000     0.1207     0.9745     0.9745    -0.0000
 29 H      0.8681     1.0000     0.1319     0.9766     0.9766     0.0000
 30 H      0.8678     1.0000     0.1322     0.9707     0.9707     0.0000
 31 H      0.8661     1.0000     0.1339     0.9753     0.9753    -0.0000
 32 H      0.6356     1.0000     0.3644     0.8869     0.8869    -0.0000

  Mayer bond orders larger than 0.100000
B(  0-C ,  1-C ) :   1.0083 B(  0-C , 15-H ) :   0.9661 B(  0-C , 16-H ) :   0.9636 
B(  0-C , 17-H ) :   0.9644 B(  1-C ,  2-C ) :   0.9850 B(  1-C ,  3-C ) :   1.0028 
B(  1-C , 18-H ) :   0.9364 B(  2-C , 19-H ) :   0.9645 B(  2-C , 20-H ) :   0.9672 
B(  2-C , 21-H ) :   0.9663 B(  3-C ,  4-C ) :   0.9505 B(  3-C , 22-H ) :   0.9481 
B(  3-C , 23-H ) :   0.9325 B(  4-C ,  5-C ) :   1.3161 B(  4-C ,  9-C ) :   1.3244 
B(  5-C ,  6-C ) :   1.3926 B(  5-C , 24-H ) :   1.0000 B(  6-C ,  7-C ) :   1.3363 
B(  6-C , 25-H ) :   0.9908 B(  7-C ,  8-C ) :   1.3359 B(  7-C , 10-C ) :   0.9245 
B(  8-C ,  9-C ) :   1.4004 B(  8-C , 26-H ) :   0.9935 B(  9-C , 27-H ) :   0.9956 
B( 10-C , 11-C ) :   0.9945 B( 10-C , 12-C ) :   0.9776 B( 10-C , 28-H ) :   0.8851 
B( 11-C , 29-H ) :   0.9642 B( 11-C , 30-H ) :   0.9621 B( 11-C , 31-H ) :   0.9576 
B( 12-C , 13-O ) :   1.2281 B( 12-C , 14-O ) :   2.0618 B( 13-O , 32-H ) :   0.8350 


-------
TIMINGS
-------

Total SCF time: 0 days 0 hours 0 min 54 sec 

Total time                  ....      54.486 sec
Sum of individual times     ....      53.959 sec  ( 99.0%)

Fock matrix formation       ....      52.459 sec  ( 96.3%)
  Split-RI-J                ....       9.234 sec  ( 17.6% of F)
  XC integration            ....      26.637 sec  ( 50.8% of F)
    Basis function eval.    ....       4.285 sec  ( 16.1% of XC)
    Density eval.           ....      12.515 sec  ( 47.0% of XC)
    XC-Functional eval.     ....       0.598 sec  (  2.2% of XC)
    XC-Potential eval.      ....       8.114 sec  ( 30.5% of XC)
Diagonalization             ....       0.036 sec  (  0.1%)
Density matrix formation    ....       0.023 sec  (  0.0%)
Population analysis         ....       0.042 sec  (  0.1%)
Initial guess               ....       0.037 sec  (  0.1%)
Orbital Transformation      ....       0.000 sec  (  0.0%)
Orbital Orthonormalization  ....       0.028 sec  (  0.1%)
DIIS solution               ....       0.013 sec  (  0.0%)
SOSCF solution              ....       0.222 sec  (  0.4%)
Grid generation             ....       1.127 sec  (  2.1%)

Maximum memory used throughout the entire SCF-calculation: 323.8 MB

-------------------------   --------------------
FINAL SINGLE POINT ENERGY      -657.064674259344
-------------------------   --------------------

                                *** OPTIMIZATION RUN DONE ***

                            ***************************************
                            *     ORCA property calculations      *
                            ***************************************

                                    ---------------------
                                    Active property flags
                                    ---------------------
   (+) Dipole Moment


------------------------------------------------------------------------------
                       ORCA ELECTRIC PROPERTIES CALCULATION
------------------------------------------------------------------------------

Dipole Moment Calculation                       ... on
Quadrupole Moment Calculation                   ... off
Polarizability Calculation                      ... off
GBWName                                         ... Ibuprofeno\Ibuprofeno_TPSS_def2-TZVP\Ibuprofeno_TPSS_def2-TZVP.orcainp.gbw
Electron density                                ... Ibuprofeno\Ibuprofeno_TPSS_def2-TZVP\Ibuprofeno_TPSS_def2-TZVP.orcainp.scfp
The origin for moment calculation is the CENTER OF MASS  = (11.529923,  3.638831  1.354525)

-------------
DIPOLE MOMENT
-------------
                                X             Y             Z
Electronic contribution:     19.13873       1.29299      -2.51100
Nuclear contribution   :    -20.96319      -2.66171       3.54204
                        -----------------------------------------
Total Dipole Moment    :     -1.82446      -1.36872       1.03104
                        -----------------------------------------
Magnitude (a.u.)       :      2.50302
Magnitude (Debye)      :      6.36217



--------------------
Rotational spectrum 
--------------------
 
Rotational constants in cm-1:     0.047593     0.008508     0.008012 
Rotational constants in MHz :  1426.799936   255.063872   240.198420 

 Dipole components along the rotational axes: 
x,y,z [a.u.] :     2.023151    -1.145160     0.927669 
x,y,z [Debye]:     5.142442    -2.910766     2.357947 

 

Timings for individual modules:

Sum of individual times         ...     1876.095 sec (=  31.268 min)
GTO integral calculation        ...        8.452 sec (=   0.141 min)   0.5 %
SCF iterations                  ...     1463.964 sec (=  24.399 min)  78.0 %
SCF Gradient evaluation         ...      402.334 sec (=   6.706 min)  21.4 %
Geometry relaxation             ...        1.345 sec (=   0.022 min)   0.1 %
                             ****ORCA TERMINATED NORMALLY****
TOTAL RUN TIME: 0 days 0 hours 31 minutes 17 seconds 879 msec
