
                                 *****************
                                 * O   R   C   A *
                                 *****************

                                            #,                                       
                                            ###                                      
                                            ####                                     
                                            #####                                    
                                            ######                                   
                                           ########,                                 
                                     ,,################,,,,,                         
                               ,,#################################,,                 
                          ,,##########################################,,             
                       ,#########################################, ''#####,          
                    ,#############################################,,   '####,        
                  ,##################################################,,,,####,       
                ,###########''''           ''''###############################       
              ,#####''   ,,,,##########,,,,          '''####'''          '####       
            ,##' ,,,,###########################,,,                        '##       
           ' ,,###''''                  '''############,,,                           
         ,,##''                                '''############,,,,        ,,,,,,###''
      ,#''                                            '''#######################'''  
     '                                                          ''''####''''         
             ,#######,   #######,   ,#######,      ##                                
            ,#'     '#,  ##    ##  ,#'     '#,    #''#        ,####,   ,####,        
            ##       ##  ##   ,#'  ##            #'  '#       #'       #'  '#        
            ##       ##  #######   ##           ,######,      #####,   #    #        
            '#,     ,#'  ##    ##  '#,     ,#' ,#      #,     #,   #   #,  ,#        
             '#######'   ##     ##  '#######'  #'      '#     '####' # '####'        



                #########################################################
                #                        -***-                          #
                #          Department of theory and spectroscopy        #
                #                                                       #
                #                      Frank Neese                      #
                #                                                       #
                #     Directorship, Architecture, Infrastructure        #
                #                    SHARK, DRIVERS                     #
                #        Core code/Algorithms in most modules           #
                #                                                       #
                #        Max Planck Institute fuer Kohlenforschung      #
                #                Kaiser Wilhelm Platz 1                 #
                #                 D-45470 Muelheim/Ruhr                 #
                #                      Germany                          #
                #                                                       #
                #                  All rights reserved                  #
                #                        -***-                          #
                #########################################################


                         Program Version 6.0.0  -   RELEASE   -


 With contributions from (in alphabetic order):
   Daniel Aravena         : Magnetic Suceptibility
   Michael Atanasov       : Ab Initio Ligand Field Theory (pilot matlab implementation)
   Alexander A. Auer      : GIAO ZORA, VPT2 properties, NMR spectrum
   Ute Becker             : All parallelization in ORCA, NUMFREQ, NUMCALC
   Giovanni Bistoni       : ED, misc. LED, open-shell LED, HFLD
   Martin Brehm           : Molecular dynamics
   Dmytro Bykov           : pre 5.0 version of the SCF Hessian
   Marcos Casanova-Páez   : Triplet and SCS-CIS(D). UHF-(DLPNO)-IP/EA/STEOM-CCSD. UHF-CVS-IP/STEOM-CCSD
   Vijay G. Chilkuri      : MRCI spin determinant printing, contributions to CSF-ICE
   Pauline Colinet        : FMM embedding
   Dipayan Datta          : RHF DLPNO-CCSD density
   Achintya Kumar Dutta   : EOM-CC, STEOM-CC
   Nicolas Foglia         : Exact transition moments, OPA infrastructure, MCD improvements
   Dmitry Ganyushin       : Spin-Orbit,Spin-Spin,Magnetic field MRCI
   Miquel Garcia          : C-PCM and meta-GGA Hessian, CCSD/C-PCM, Gaussian charge scheme
   Tiago L. C. Gouveia    : GS-ROHF, GS-ROCIS
   Yang Guo               : DLPNO-NEVPT2, F12-NEVPT2, CIM, IAO-localization
   Andreas Hansen         : Spin unrestricted coupled pair/coupled cluster methods
   Ingolf Harden          : AUTO-CI MPn and infrastructure 
   Benjamin Helmich-Paris : MC-RPA, TRAH-(SCF,CASSCF), AVAS, COSX integrals, SCF dyn. polar.
   Lee Huntington         : MR-EOM, pCC
   Robert Izsak           : Overlap fitted RIJCOSX, COSX-SCS-MP3, EOM
   Riya Kayal             : Wick's Theorem for AUTO-CI, AUTO-CI UHF-CCSDT
   Emily Kempfer          : AUTO-CI, RHF CISDT and CCSDT
   Christian Kollmar      : KDIIS, OOCD, Brueckner-CCSD(T), CCSD density, CASPT2, CASPT2-K, improved NEVPT2
   Axel Koslowski         : Symmetry handling
   Simone Kossmann        : Meta GGA functionals, TD-DFT gradient, OOMP2, (MP2 Hessian; deprecated post 5.0)
   Lucas Lang             : DCDCAS
   Marvin Lechner         : AUTO-CI (C++ implementation), FIC-MRCC
   Spencer Leger          : CASSCF response
   Dagmar Lenk            : GEPOL surface, SMD, ORCA-2-JSON
   Dimitrios Liakos       : Extrapolation schemes; Compound Job, initial MDCI parallelization
   Dimitrios Manganas     : Further ROCIS development; embedding schemes. LFT, Crystal Embedding
   Dimitrios Pantazis     : SARC Basis sets
   Anastasios Papadopoulos: AUTO-CI, single reference methods and gradients
   Taras Petrenko         : pre 6.0 DFT Hessian and TD-DFT gradient, (ASA, deprecated), ECA, 1-Electron XAS/XES, NRVS
   Peter Pinski           : DLPNO-MP2, DLPNO-MP2 Gradient
   Christoph Reimann      : Effective Core Potentials
   Marius Retegan         : Local ZFS, SOC
   Christoph Riplinger    : Optimizer, TS searches, QM/MM, DLPNO-CCSD(T), (RO)-DLPNO pert. Triples
   Michael Roemelt        : Original ROCIS implementation
   Masaaki Saitow         : Open-shell DLPNO-CCSD energy and density
   Barbara Sandhoefer     : DKH picture change effects
   Kantharuban Sivalingam : CASSCF convergence/infrastructure, NEVPT2 and variants, FIC-MRCI
   Bernardo de Souza      : ESD, SOC TD-DFT
   Georgi Stoychev        : AutoAux, RI-MP2 NMR, DLPNO-MP2 response, X2C
   Van Anh Tran           : RI-MP2 g-tensors
   Willem Van den Heuvel  : Paramagnetic NMR
   Zikuan Wang            : NOTCH, Electric field optimization 
   Frank Wennmohs         : Technical directorship and infrastructure
   Hang Xu                : AUTO-CI-Response properties 


 We gratefully acknowledge several colleagues who have allowed us to
 interface, adapt or use parts of their codes:
   Stefan Grimme, W. Hujo, H. Kruse, P. Pracht,  : VdW corrections, initial TS optimization,
                  C. Bannwarth, S. Ehlert,         DFT functionals, gCP, sTDA/sTD-DF
                  L. Wittmann, M. Mueller
   Ed Valeev, F. Pavosevic, A. Kumar             : LibInt (2-el integral package), F12 methods
   Garnet Chan, S. Sharma, J. Yang, R. Olivares  : DMRG
   Ulf Ekstrom                                   : XCFun DFT Library
   Mihaly Kallay                                 : mrcc  (arbitrary order and MRCC methods)
   Frank Weinhold                                : gennbo (NPA and NBO analysis)
   Simon Mueller                                 : openCOSMO-RS
   Christopher J. Cramer and Donald G. Truhlar   : smd solvation model
   Lars Goerigk                                  : TD-DFT with DH, B97 family of functionals
   V. Asgeirsson, H. Jonsson                     : NEB implementation
   FAccTs GmbH                                   : IRC, NEB, NEB-TS, DLPNO-Multilevel, CI-OPT
                                                   MM, QMMM, 2- and 3-layer-ONIOM, Crystal-QMMM,
                                                   LR-CPCM, SF, NACMEs, symmetry and pop. for TD-DFT,
                                                   nearIR, NL-DFT gradient (VV10), updates on ESD,
                                                   ML-optimized integration grids, MBIS, APM,
                                                   GOAT, DOCKER, SOLVATOR, interface openCOSMO-RS
   S Lehtola, MJT Oliveira, MAL Marques          : LibXC Library
   Liviu Ungur et al                             : ANISO software


 Your calculation uses the libint2 library for the computation of 2-el integrals
 For citations please refer to: http://libint.valeyev.net

 Your ORCA version has been built with support for libXC version: 6.2.2
 For citations please refer to: https://libxc.gitlab.io

 This ORCA versions uses:
   CBLAS   interface :  Fast vector & matrix operations
   LAPACKE interface :  Fast linear algebra routines
   Shared memory     :  Shared parallel matrices


Warning: RI is on but no J-basis has been assigned. Assigning Def2/J (nothing to worry about!)
================================================================================

----- Orbital basis set information -----
Your calculation utilizes the basis: STO-3G
   H-Ne       : W. J. Hehre, R. F. Stewart and J. A. Pople, J. Chem. Phys. 2657 (1969).
   Na-Ar      : W. J. Hehre, R. Ditchfield, R. F. Stewart and J. A. Pople, J. Chem. Phys. 2769 (1970).
   K,Ca,Ga-Kr : W. J. Pietro, B. A. Levy, W. J. Hehre and R. F. Stewart, J. Am. Chem. Soc. 19, 2225 (1980).
   Sc-Zn,Y-Cd : W. J. Pietro and W. J. Hehre, J. Comp. Chem. 4, 241 (1983).

----- AuxJ basis set information -----
Your calculation utilizes the auxiliary basis: def2/J
   F. Weigend, Phys. Chem. Chem. Phys. 8, 1057 (2006).

================================================================================
                                        WARNINGS
                       Please study these warnings very carefully!
================================================================================


WARNING: Geometry Optimization
  ===> : Switching off AutoStart
         For restart on a previous wavefunction, please use MOREAD

================================================================================
                                       INPUT FILE
================================================================================
NAME = Diclofenac\Diclofenac_B3LYP_STO-3G\Diclofenac_B3LYP_STO-3G.orcainp
|  1> # ORCA input file
|  2> # 
|  3> !B3LYP STO-3G Opt CPCM(WATER)
|  4> * xyz 0 1
|  5>    O        2.14551        -0.60885         0.52181
|  6>    C        2.63420        -1.80737         0.13543
|  7>    O        2.17162        -2.83239         0.62109
|  8>    C        3.65654        -1.73250        -0.95851
|  9>    C        4.96102        -1.03926        -0.61508
| 10>    C        6.12539        -1.84007        -0.61083
| 11>    C        7.39004        -1.27991        -0.47544
| 12>    C        7.51670         0.09058        -0.30438
| 13>    C        6.37165         0.89145        -0.25876
| 14>    C        5.08221         0.35792        -0.43094
| 15>    N        3.94879         1.20390        -0.53378
| 16>    C        3.84026         2.58058        -0.86585
| 17>    C        4.60199         3.19619        -1.88448
| 18>   Cl        5.54000         2.29292        -3.03255
| 19>    C        4.53823         4.57834        -2.11797
| 20>    C        3.67875         5.38423        -1.37796
| 21>    C        2.87476         4.80277        -0.40530
| 22>    C        2.95948         3.42647        -0.14720
| 23>   Cl        1.91108         2.79105         1.07992
| 24>    H        1.46203        -0.84108         1.18918
| 25>    H        3.20949        -1.27698        -1.84977
| 26>    H        3.86501        -2.77055        -1.24335
| 27>    H        6.05372        -2.91564        -0.76619
| 28>    H        8.27654        -1.91040        -0.52459
| 29>    H        8.50112         0.54295        -0.23421
| 30>    H        6.50961         1.96135        -0.11755
| 31>    H        3.12683         0.82883        -0.05232
| 32>    H        5.14146         5.02526        -2.90632
| 33>    H        3.62186         6.44998        -1.58160
| 34>    H        2.17804         5.43109         0.14743
| 35> *
| 36> 
| 37>                          ****END OF INPUT****
================================================================================

                       *****************************
                       * Geometry Optimization Run *
                       *****************************

Geometry optimization settings:
Update method            Update   .... BFGS
Choice of coordinates    CoordSys .... (2022) Redundant Internals
Initial Hessian          InHess   .... Almloef's Model
Max. no of cycles        MaxIter  .... 90

Convergence Tolerances:
Energy Change            TolE     ....  5.0000e-06 Eh
Max. Gradient            TolMAXG  ....  3.0000e-04 Eh/bohr
RMS Gradient             TolRMSG  ....  1.0000e-04 Eh/bohr
Max. Displacement        TolMAXD  ....  4.0000e-03 bohr
RMS Displacement         TolRMSD  ....  2.0000e-03 bohr
Strict Convergence                .... False

------------------------------------------------------------------------------
                        ORCA OPTIMIZATION COORDINATE SETUP
------------------------------------------------------------------------------

The optimization will be done in redundant internal coordinates (2022)
Making redundant internal coordinates   ...  (2022 redundants) done
Evaluating the initial hessian          ...  (Almloef) done
Evaluating the coordinates              ...  done
Calculating the B-matrix                .... done
Calculating the G-matrix                .... done
Diagonalizing the G-matrix              .... done
Small eigenvalue found = 6.908e-03
Small eigenvalue found = 1.854e-02
Small eigenvalue found = 2.219e-02
The first mode is                       ....   66
The number of degrees of freedom        ....   84

    -----------------------------------------------------------------
                    Redundant Internal Coordinates


    -----------------------------------------------------------------
         Definition                    Initial Value    Approx d2E/dq
    -----------------------------------------------------------------
      1. B(C   1,O   0)                  1.3508         0.646364   
      2. B(O   2,C   1)                  1.2250         1.026115   
      3. B(C   3,C   1)                  1.4992         0.418385   
      4. B(C   4,C   3)                  1.5166         0.392368   
      5. B(C   5,C   4)                  1.4132         0.573799   
      6. B(C   6,C   5)                  1.3898         0.625334   
      7. B(C   7,C   6)                  1.3869         0.631906   
      8. B(C   8,C   7)                  1.3981         0.606535   
      9. B(C   9,C   8)                  1.4060         0.589038   
     10. B(C   9,C   4)                  1.4145         0.571096   
     11. B(N  10,C   9)                  1.4181         0.504783   
     12. B(C  11,N  10)                  1.4203         0.500620   
     13. B(C  12,C  11)                  1.4131         0.573990   
     14. B(Cl 13,C  12)                  1.7360         0.393237   
     15. B(C  14,C  12)                  1.4032         0.595260   
     16. B(C  15,C  14)                  1.3913         0.621767   
     17. B(C  16,C  15)                  1.3894         0.626067   
     18. B(C  17,C  16)                  1.4029         0.595982   
     19. B(C  17,C  11)                  1.4170         0.565892   
     20. B(Cl 18,C  17)                  1.7346         0.395366   
     21. B(H  19,O   0)                  0.9831         0.477677   
     22. B(H  20,C   3)                  1.0962         0.351966   
     23. B(H  21,C   3)                  1.0964         0.351704   
     24. B(H  22,C   5)                  1.0891         0.361301   
     25. B(H  23,C   6)                  1.0890         0.361490   
     26. B(H  24,C   7)                  1.0857         0.365895   
     27. B(H  25,C   8)                  1.0880         0.362807   
     28. B(H  26,N  10)                  1.0238         0.411368   
     29. B(H  26,Cl 18)                  2.5711         0.003503   
     30. B(H  26,O   0)                  1.8329         0.021053   
     31. B(H  27,C  14)                  1.0886         0.361914   
     32. B(H  28,C  15)                  1.0865         0.364731   
     33. B(H  29,C  16)                  1.0889         0.361551   
     34. A(C   1,O   0,H  19)          103.6571         0.367383   
     35. A(O   0,C   1,O   2)          119.5010         0.473010   
     36. A(O   0,C   1,C   3)          114.2761         0.405042   
     37. A(O   2,C   1,C   3)          126.0590         0.439894   
     38. A(C   4,C   3,H  20)          110.1775         0.325720   
     39. A(C   4,C   3,H  21)          109.1501         0.325680   
     40. A(C   1,C   3,H  20)          109.6284         0.329185   
     41. A(C   1,C   3,H  21)          105.7803         0.329145   
     42. A(H  20,C   3,H  21)          105.0544         0.288729   
     43. A(C   1,C   3,C   4)          116.3682         0.373621   
     44. A(C   5,C   4,C   9)          119.2593         0.421823   
     45. A(C   3,C   4,C   9)          123.6885         0.394389   
     46. A(C   3,C   4,C   5)          116.7654         0.394715   
     47. A(C   4,C   5,C   6)          121.4430         0.428729   
     48. A(C   6,C   5,H  22)          118.1535         0.353621   
     49. A(C   4,C   5,H  22)          120.3305         0.348519   
     50. A(C   5,C   6,C   7)          119.5646         0.436227   
     51. A(C   5,C   6,H  23)          120.2008         0.353652   
     52. A(C   7,C   6,H  23)          120.2219         0.354279   
     53. A(C   8,C   7,H  24)          120.1224         0.352551   
     54. A(C   6,C   7,H  24)          120.1671         0.355007   
     55. A(C   6,C   7,C   8)          119.6882         0.433837   
     56. A(C   7,C   8,C   9)          121.9876         0.428397   
     57. A(C   9,C   8,H  25)          120.3539         0.350309   
     58. A(C   7,C   8,H  25)          117.6266         0.352046   
     59. A(C   8,C   9,N  10)          121.0307         0.411901   
     60. A(C   4,C   9,N  10)          120.7547         0.409648   
     61. A(C   4,C   9,C   8)          117.9911         0.423804   
     62. A(C   9,N  10,C  11)          131.0165         0.397669   
     63. A(C   9,N  10,H  26)          112.8955         0.343478   
     64. A(C  11,N  10,H  26)          113.8103         0.343001   
     65. A(C  12,C  11,C  17)          116.1425         0.421160   
     66. A(N  10,C  11,C  17)          120.5012         0.408385   
     67. A(N  10,C  11,C  12)          123.3403         0.409414   
     68. A(Cl 13,C  12,C  14)          115.2783         0.415213   
     69. A(C  11,C  12,C  14)          121.6396         0.424985   
     70. A(C  11,C  12,Cl 13)          122.7723         0.412537   
     71. A(C  15,C  14,H  27)          119.3193         0.353380   
     72. A(C  12,C  14,H  27)          119.9803         0.350785   
     73. A(C  12,C  14,C  15)          120.6711         0.431121   
     74. A(C  16,C  15,H  28)          120.7563         0.354257   
     75. A(C  14,C  15,H  28)          120.0537         0.353844   
     76. A(C  14,C  15,C  16)          119.1689         0.435050   
     77. A(C  15,C  16,H  29)          118.9535         0.353732   
     78. A(C  15,C  16,C  17)          120.2923         0.431749   
     79. A(C  17,C  16,H  29)          120.7537         0.350798   
     80. A(C  16,C  17,Cl 18)          116.9396         0.415701   
     81. A(C  11,C  17,Cl 18)          121.0523         0.411893   
     82. A(C  11,C  17,C  16)          121.9991         0.423998   
     83. D(C   3,C   1,O   0,H  19)    176.5486         0.034062   
     84. D(O   2,C   1,O   0,H  19)      0.9229         0.034062   
     85. D(C   4,C   3,C   1,O   0)     65.2629         0.012947   
     86. D(H  21,C   3,C   1,O   0)   -173.3670         0.012947   
     87. D(H  20,C   3,C   1,O   2)    114.7124         0.012947   
     88. D(H  20,C   3,C   1,O   0)    -60.5774         0.012947   
     89. D(C   4,C   3,C   1,O   2)   -119.4473         0.012947   
     90. D(C   5,C   4,C   3,H  21)     -5.0968         0.011447   
     91. D(C   9,C   4,C   3,H  20)     53.8239         0.011447   
     92. D(C   9,C   4,C   3,C   1)    -71.7397         0.011447   
     93. D(C   5,C   4,C   3,H  20)   -119.9655         0.011447   
     94. D(C   5,C   4,C   3,C   1)    114.4708         0.011447   
     95. D(H  22,C   5,C   4,C   3)     -4.9864         0.022598   
     96. D(C   6,C   5,C   4,C   3)    171.8490         0.022598   
     97. D(C   6,C   5,C   4,C   9)     -2.2288         0.022598   
     98. D(H  22,C   5,C   4,C   9)   -179.0642         0.022598   
     99. D(H  23,C   6,C   5,H  22)     -0.0425         0.027088   
    100. D(H  23,C   6,C   5,C   4)   -176.9446         0.027088   
    101. D(C   7,C   6,C   5,H  22)    178.6624         0.027088   
    102. D(C   7,C   6,C   5,C   4)      1.7603         0.027088   
    103. D(H  24,C   7,C   6,H  23)      0.9552         0.027697   
    104. D(H  24,C   7,C   6,C   5)   -177.7494         0.027697   
    105. D(C   8,C   7,C   6,H  23)    179.2409         0.027697   
    106. D(C   8,C   7,C   6,C   5)      0.5362         0.027697   
    107. D(H  25,C   8,C   7,H  24)     -2.0630         0.025391   
    108. D(H  25,C   8,C   7,C   6)    179.6506         0.025391   
    109. D(C   9,C   8,C   7,H  24)    175.8886         0.025391   
    110. D(C   9,C   8,C   7,C   6)     -2.3979         0.025391   
    111. D(N  10,C   9,C   4,C   3)      1.3796         0.022377   
    112. D(C   8,C   9,C   4,C   5)      0.3996         0.022377   
    113. D(C   8,C   9,C   4,C   3)   -173.2438         0.022377   
    114. D(N  10,C   9,C   8,H  25)      5.1811         0.023873   
    115. D(N  10,C   9,C   8,C   7)   -172.7157         0.023873   
    116. D(C   4,C   9,C   8,H  25)    179.7889         0.023873   
    117. D(C   4,C   9,C   8,C   7)      1.8922         0.023873   
    118. D(N  10,C   9,C   4,C   5)    175.0230         0.022377   
    119. D(H  26,N  10,C   9,C   8)   -141.4292         0.020157   
    120. D(H  26,N  10,C   9,C   4)     44.1118         0.020157   
    121. D(C  11,N  10,C   9,C   8)     20.0388         0.020157   
    122. D(C  11,N  10,C   9,C   4)   -154.4202         0.020157   
    123. D(C  17,C  11,N  10,H  26)     23.3394         0.019815   
    124. D(C  17,C  11,N  10,C   9)   -137.9957         0.019815   
    125. D(C  12,C  11,N  10,H  26)   -158.1729         0.019815   
    126. D(C  12,C  11,N  10,C   9)     40.4920         0.019815   
    127. D(C  14,C  12,C  11,C  17)      3.2903         0.022614   
    128. D(C  14,C  12,C  11,N  10)   -175.2582         0.022614   
    129. D(Cl 13,C  12,C  11,C  17)   -170.0142         0.022614   
    130. D(Cl 13,C  12,C  11,N  10)     11.4373         0.022614   
    131. D(H  27,C  14,C  12,Cl 13)     -6.5896         0.024406   
    132. D(H  27,C  14,C  12,C  11)    179.6345         0.024406   
    133. D(C  15,C  14,C  12,Cl 13)    171.4297         0.024406   
    134. D(C  15,C  14,C  12,C  11)     -2.3462         0.024406   
    135. D(H  28,C  15,C  14,H  27)     -0.6550         0.026761   
    136. D(H  28,C  15,C  14,C  12)   -178.6872         0.026761   
    137. D(C  16,C  15,C  14,H  27)    177.6875         0.026761   
    138. D(C  16,C  15,C  14,C  12)     -0.3448         0.026761   
    139. D(H  29,C  16,C  15,H  28)      0.4728         0.027155   
    140. D(H  29,C  16,C  15,C  14)   -177.8577         0.027155   
    141. D(C  17,C  16,C  15,H  28)   -179.7816         0.027155   
    142. D(C  17,C  16,C  15,C  14)      1.8879         0.027155   
    143. D(Cl 18,C  17,C  11,N  10)     -4.2697         0.021954   
    144. D(C  16,C  17,C  11,C  12)     -1.7328         0.021954   
    145. D(C  16,C  17,C  11,N  10)    176.8599         0.021954   
    146. D(Cl 18,C  17,C  16,H  29)      0.0062         0.024469   
    147. D(Cl 18,C  17,C  16,C  15)   -179.7348         0.024469   
    148. D(C  11,C  17,C  16,H  29)    178.9207         0.024469   
    149. D(C  11,C  17,C  16,C  15)     -0.8203         0.024469   
    150. D(Cl 18,C  17,C  11,C  12)    177.1377         0.021954   
    -----------------------------------------------------------------

Number of atoms                         .... 30
Number of degrees of freedom            .... 150


         *************************************************************
         *                GEOMETRY OPTIMIZATION CYCLE   1            *
         *************************************************************
---------------------------------
CARTESIAN COORDINATES (ANGSTROEM)
---------------------------------
  O      2.145510   -0.608850    0.521810
  C      2.634200   -1.807370    0.135430
  O      2.171620   -2.832390    0.621090
  C      3.656540   -1.732500   -0.958510
  C      4.961020   -1.039260   -0.615080
  C      6.125390   -1.840070   -0.610830
  C      7.390040   -1.279910   -0.475440
  C      7.516700    0.090580   -0.304380
  C      6.371650    0.891450   -0.258760
  C      5.082210    0.357920   -0.430940
  N      3.948790    1.203900   -0.533780
  C      3.840260    2.580580   -0.865850
  C      4.601990    3.196190   -1.884480
  Cl     5.540000    2.292920   -3.032550
  C      4.538230    4.578340   -2.117970
  C      3.678750    5.384230   -1.377960
  C      2.874760    4.802770   -0.405300
  C      2.959480    3.426470   -0.147200
  Cl     1.911080    2.791050    1.079920
  H      1.462030   -0.841080    1.189180
  H      3.209490   -1.276980   -1.849770
  H      3.865010   -2.770550   -1.243350
  H      6.053720   -2.915640   -0.766190
  H      8.276540   -1.910400   -0.524590
  H      8.501120    0.542950   -0.234210
  H      6.509610    1.961350   -0.117550
  H      3.126830    0.828830   -0.052320
  H      5.141460    5.025260   -2.906320
  H      3.621860    6.449980   -1.581600
  H      2.178040    5.431090    0.147430

----------------------------
CARTESIAN COORDINATES (A.U.)
----------------------------
  NO LB      ZA    FRAG     MASS         X           Y           Z
   0 O     8.0000    0    15.999    4.054426   -1.150560    0.986078
   1 C     6.0000    0    12.011    4.977917   -3.415434    0.255926
   2 O     8.0000    0    15.999    4.103767   -5.352441    1.173690
   3 C     6.0000    0    12.011    6.909859   -3.273951   -1.811321
   4 C     6.0000    0    12.011    9.374969   -1.963917   -1.162333
   5 C     6.0000    0    12.011   11.575310   -3.477228   -1.154301
   6 C     6.0000    0    12.011   13.965152   -2.418679   -0.898451
   7 C     6.0000    0    12.011   14.204504    0.171171   -0.575195
   8 C     6.0000    0    12.011   12.040674    1.684596   -0.488986
   9 C     6.0000    0    12.011    9.603985    0.676371   -0.814359
  10 N     7.0000    0    14.007    7.462132    2.275041   -1.008698
  11 C     6.0000    0    12.011    7.257040    4.876589   -1.636219
  12 C     6.0000    0    12.011    8.696501    6.039924   -3.561151
  13 Cl   17.0000    0    35.453   10.469083    4.332991   -5.730689
  14 C     6.0000    0    12.011    8.576012    8.651809   -4.002383
  15 C     6.0000    0    12.011    6.951830   10.174720   -2.603967
  16 C     6.0000    0    12.011    5.432509    9.075920   -0.765906
  17 C     6.0000    0    12.011    5.592607    6.475090   -0.278168
  18 Cl   17.0000    0    35.453    3.611418    5.274320    2.040753
  19 H     1.0000    0     1.008    2.762836   -1.589411    2.247225
  20 H     1.0000    0     1.008    6.065057   -2.413142   -3.495559
  21 H     1.0000    0     1.008    7.303810   -5.235581   -2.349591
  22 H     1.0000    0     1.008   11.439873   -5.509761   -1.447889
  23 H     1.0000    0     1.008   15.640394   -3.610133   -0.991331
  24 H     1.0000    0     1.008   16.064789    1.026027   -0.442593
  25 H     1.0000    0     1.008   12.301380    3.706414   -0.222137
  26 H     1.0000    0     1.008    5.908852    1.566262   -0.098870
  27 H     1.0000    0     1.008    9.715951    9.496365   -5.492149
  28 H     1.0000    0     1.008    6.844323   12.188696   -2.988791
  29 H     1.0000    0     1.008    4.115899   10.263273    0.278602

--------------------------------
INTERNAL COORDINATES (ANGSTROEM)
--------------------------------
 O      0   0   0     0.000000000000     0.00000000     0.00000000
 C      1   0   0     1.350761863135     0.00000000     0.00000000
 O      2   1   0     1.224953832763   119.50099921     0.00000000
 C      2   1   3     1.499162871772   114.27607165   175.62566684
 C      4   2   1     1.516639025246   116.36824362    65.26289689
 C      5   4   2     1.413178055130   116.76544831   114.47081137
 C      6   5   4     1.389765915613   121.44301390   171.84896295
 C      7   6   5     1.386920011861   119.56458827     1.76033960
 C      8   7   6     1.398074906362   119.68818776     0.53623487
 C      9   8   7     1.406042576489   121.98762606   357.60214534
 N     10   9   8     1.418061748444   121.03074786   187.28429275
 C     11  10   9     1.420315833961   131.01652389    20.03882677
 C     12  11  10     1.413087167127   123.34026421    40.49199975
 Cl    13  12  11     1.736036917205   122.77232188    11.43732800
 C     13  12  11     1.403182646771   121.63963324   184.74177848
 C     15  13  12     1.391322882224   120.67111472   357.65378048
 C     16  15  13     1.389447058113   119.16887824   359.65524444
 C     17  16  15     1.402852372276   120.29227762     1.88789425
 Cl    18  17  16     1.734567563054   116.93959268   180.26518852
 H      1   2   3     0.983086161127   103.65714607     0.92291366
 H      4   2   1     1.096219211882   109.62841757   299.42262521
 H      4   2   1     1.096422076118   105.78026083   186.63303730
 H      6   5   4     1.089093266621   120.33047974   355.01358530
 H      7   6   5     1.088951611689   120.20079991   183.05541286
 H      8   7   6     1.085654264580   120.16713801   182.25059477
 H      9   8   7     1.087961045121   117.62656071   179.65060092
 H     11  10   9     1.023767296850   112.89546782   218.57077884
 H     15  13  12     1.088632004766   119.98032175   179.63447267
 H     16  15  13     1.086521414515   120.05368758   181.31275087
 H     17  16  15     1.088905521016   118.95349634   182.14227013

---------------------------
INTERNAL COORDINATES (A.U.)
---------------------------
 O      0   0   0     0.000000000000     0.00000000     0.00000000
 C      1   0   0     2.552569993470     0.00000000     0.00000000
 O      2   1   0     2.314827270619   119.50099921     0.00000000
 C      2   1   3     2.833007257792   114.27607165   175.62566684
 C      4   2   1     2.866032401733   116.36824362    65.26289689
 C      5   4   2     2.670519502662   116.76544831   114.47081137
 C      6   5   4     2.626276970767   121.44301390   171.84896295
 C      7   6   5     2.620898992072   119.56458827     1.76033960
 C      8   7   6     2.641978687732   119.68818776     0.53623487
 C      9   8   7     2.657035402197   121.98762606   357.60214534
 N     10   9   8     2.679748345549   121.03074786   187.28429275
 C     11  10   9     2.684007949858   131.01652389    20.03882677
 C     12  11  10     2.670347749229   123.34026421    40.49199975
 Cl    13  12  11     3.280634331895   122.77232188    11.43732800
 C     13  12  11     2.651630918268   121.63963324   184.74177848
 C     15  13  12     2.629219211261   120.67111472   357.65378048
 C     16  15  13     2.625674417417   119.16887824   359.65524444
 C     17  16  15     2.651006789923   120.29227762     1.88789425
 Cl    18  17  16     3.277857654956   116.93959268   180.26518852
 H      1   2   3     1.857763610579   103.65714607     0.92291366
 H      4   2   1     2.071554093201   109.62841757   299.42262521
 H      4   2   1     2.071937451049   105.78026083   186.63303730
 H      6   5   4     2.058088008212   120.33047974   355.01358530
 H      7   6   5     2.057820319184   120.20079991   183.05541286
 H      8   7   6     2.051589236179   120.16713801   182.25059477
 H      9   8   7     2.055948419653   117.62656071   179.65060092
 H     11  10   9     1.934639815912   112.89546782   218.57077884
 H     15  13  12     2.057216349629   119.98032175   179.63447267
 H     16  15  13     2.053227912074   120.05368758   181.31275087
 H     17  16  15     2.057733220436   118.95349634   182.14227013

---------------------
BASIS SET INFORMATION
---------------------
There are 5 groups of distinct atoms

 Group   1 Type O   : 6s3p contracted to 2s1p pattern {33/3}
 Group   2 Type C   : 6s3p contracted to 2s1p pattern {33/3}
 Group   3 Type N   : 6s3p contracted to 2s1p pattern {33/3}
 Group   4 Type Cl  : 9s6p contracted to 3s2p pattern {333/33}
 Group   5 Type H   : 3s contracted to 1s pattern {3}

Atom   0O    basis set group =>   1
Atom   1C    basis set group =>   2
Atom   2O    basis set group =>   1
Atom   3C    basis set group =>   2
Atom   4C    basis set group =>   2
Atom   5C    basis set group =>   2
Atom   6C    basis set group =>   2
Atom   7C    basis set group =>   2
Atom   8C    basis set group =>   2
Atom   9C    basis set group =>   2
Atom  10N    basis set group =>   3
Atom  11C    basis set group =>   2
Atom  12C    basis set group =>   2
Atom  13Cl   basis set group =>   4
Atom  14C    basis set group =>   2
Atom  15C    basis set group =>   2
Atom  16C    basis set group =>   2
Atom  17C    basis set group =>   2
Atom  18Cl   basis set group =>   4
Atom  19H    basis set group =>   5
Atom  20H    basis set group =>   5
Atom  21H    basis set group =>   5
Atom  22H    basis set group =>   5
Atom  23H    basis set group =>   5
Atom  24H    basis set group =>   5
Atom  25H    basis set group =>   5
Atom  26H    basis set group =>   5
Atom  27H    basis set group =>   5
Atom  28H    basis set group =>   5
Atom  29H    basis set group =>   5
---------------------------------
AUXILIARY/J BASIS SET INFORMATION
---------------------------------
There are 5 groups of distinct atoms

 Group   1 Type O   : 12s5p4d2f1g contracted to 6s4p3d1f1g pattern {711111/2111/211/2/1}
 Group   2 Type C   : 12s5p4d2f1g contracted to 6s4p3d1f1g pattern {711111/2111/211/2/1}
 Group   3 Type N   : 12s5p4d2f1g contracted to 6s4p3d1f1g pattern {711111/2111/211/2/1}
 Group   4 Type Cl  : 14s5p5d2f1g contracted to 8s4p3d1f1g pattern {71111111/2111/311/2/1}
 Group   5 Type H   : 5s2p1d contracted to 3s1p1d pattern {311/2/1}

Atom   0O    basis set group =>   1
Atom   1C    basis set group =>   2
Atom   2O    basis set group =>   1
Atom   3C    basis set group =>   2
Atom   4C    basis set group =>   2
Atom   5C    basis set group =>   2
Atom   6C    basis set group =>   2
Atom   7C    basis set group =>   2
Atom   8C    basis set group =>   2
Atom   9C    basis set group =>   2
Atom  10N    basis set group =>   3
Atom  11C    basis set group =>   2
Atom  12C    basis set group =>   2
Atom  13Cl   basis set group =>   4
Atom  14C    basis set group =>   2
Atom  15C    basis set group =>   2
Atom  16C    basis set group =>   2
Atom  17C    basis set group =>   2
Atom  18Cl   basis set group =>   4
Atom  19H    basis set group =>   5
Atom  20H    basis set group =>   5
Atom  21H    basis set group =>   5
Atom  22H    basis set group =>   5
Atom  23H    basis set group =>   5
Atom  24H    basis set group =>   5
Atom  25H    basis set group =>   5
Atom  26H    basis set group =>   5
Atom  27H    basis set group =>   5
Atom  28H    basis set group =>   5
Atom  29H    basis set group =>   5
------------------------------------------------------------------------------
                             ORCA STARTUP CALCULATIONS
                           -- RI-GTO INTEGRALS CHOSEN --
------------------------------------------------------------------------------
------------------------------------------------------------------------------
                   ___                                                        
                  /   \      - P O W E R E D   B Y -                         
                 /     \                                                     
                 |  |  |   _    _      __       _____    __    __             
                 |  |  |  | |  | |    /  \     |  _  \  |  |  /  |          
                  \  \/   | |  | |   /    \    | | | |  |  | /  /          
                 / \  \   | |__| |  /  /\  \   | |_| |  |  |/  /          
                |  |  |   |  __  | /  /__\  \  |    /   |      \           
                |  |  |   | |  | | |   __   |  |    \   |  |\   \          
                \     /   | |  | | |  |  |  |  | |\  \  |  | \   \       
                 \___/    |_|  |_| |__|  |__|  |_| \__\ |__|  \__/        
                                                                              
                      - O R C A' S   B I G   F R I E N D -                    
                                      &                                       
                       - I N T E G R A L  F E E D E R -                       
                                                                              
 v1 FN, 2020, v2 2021, v3 2022-2024                                           
------------------------------------------------------------------------------


----------------------
SHARK INTEGRAL PACKAGE
----------------------

Number of atoms                             ...     30
Number of basis functions                   ...    114
Number of shells                            ...     72
Maximum angular momentum                    ...      1
Integral batch strategy                     ... SHARK/LIBINT Hybrid
RI-J (if used) integral strategy            ... SPLIT-RIJ (Revised 2003 algorithm where possible)
Printlevel                                  ...      1
Contraction scheme used                     ... SEGMENTED contraction
Prescreening option                         ... SCHWARTZ
   Thresh                                   ... 2.500e-11
   Tcut                                     ... 2.500e-12
   Tpresel                                  ... 2.500e-12 
Coulomb Range Separation                    ... NOT USED
Exchange Range Separation                   ... NOT USED
Multipole approximations                    ... NOT USED
Finite Nucleus Model                        ... NOT USED
CABS basis                                  ... NOT available
Auxiliary Coulomb fitting basis             ... AVAILABLE
   # of basis functions in Aux-J            ...   1056
   # of shells in Aux-J                     ...    344
   Maximum angular momentum in Aux-J        ...      4
Auxiliary J/K fitting basis                 ... NOT available
Auxiliary Correlation fitting basis         ... NOT available
Auxiliary 'external' fitting basis          ... NOT available

Checking pre-screening integrals            ... done (  0.0 sec) Dimension = 72
Check shell pair data                       ... done (  0.0 sec)
Shell pair information
Shell pair cut-off parameter TPreSel        ...   2.5e-12
Total number of shell pairs                 ...      2628
Shell pairs after pre-screening             ...      2141
Total number of primitive shell pairs       ...     23652
Primitive shell pairs kept                  ...     11841
          la=0 lb=0:    984 shell pairs
          la=1 lb=0:    936 shell pairs
          la=1 lb=1:    221 shell pairs

Calculating one electron integrals          ... done (  0.0 sec)
Calculating RI/J V-Matrix + Cholesky decomp.... done (  0.0 sec)
Calculating Nuclear repulsion               ... done (  0.0 sec) ENN=   1642.820556829939 Eh

Diagonalization of the overlap matrix:
Smallest eigenvalue                        ... 1.741e-01
Time for diagonalization                   ...    0.005 sec
Threshold for overlap eigenvalues          ... 1.000e-07
Number of eigenvalues below threshold      ... 0
Time for construction of square roots      ...    0.002 sec
Total time needed                          ...    0.008 sec

-------------------
DFT GRID GENERATION
-------------------

General Integration Accuracy     IntAcc      ... 4.388
Radial Grid Type                 RadialGrid  ... OptM3 with GC (2021)
Angular Grid (max. ang.)         AngularGrid ... 4 (Lebedev-302)
Angular grid pruning method      GridPruning ... 4 (adaptive)
Weight generation scheme         WeightScheme... mBecke (2022)
Basis function cutoff            BFCut       ... 1.0000e-11
Integration weight cutoff        WCut        ... 1.0000e-14
Partially contracted basis set               ... off
Rotationally invariant grid construction     ... off
Angular grids for H and He will be reduced by one unit

Total number of grid points                  ...   151405
Total number of batches                      ...     2380
Average number of points per batch           ...       63
Average number of grid points per atom       ...     5047

--------------------
COSX GRID GENERATION
--------------------

GRIDX 1
-------
General Integration Accuracy     IntAcc      ... 3.816
Radial Grid Type                 RadialGrid  ... OptM3 with GC (2021)
Angular Grid (max. ang.)         AngularGrid ... 1 (Lebedev-50)
Angular grid pruning method      GridPruning ... 4 (adaptive)
Weight generation scheme         WeightScheme... mBecke (2022)
Basis function cutoff            BFCut       ... 1.0000e-11
Integration weight cutoff        WCut        ... 1.0000e-14
Partially contracted basis set               ... on
Rotationally invariant grid construction     ... off
Angular grids for H and He will be reduced by one unit

Total number of grid points                  ...    21254
Total number of batches                      ...      181
Average number of points per batch           ...      117
Average number of grid points per atom       ...      708
UseSFitting                                  ... on

GRIDX 2
-------
General Integration Accuracy     IntAcc      ... 4.020
Radial Grid Type                 RadialGrid  ... OptM3 with GC (2021)
Angular Grid (max. ang.)         AngularGrid ... 2 (Lebedev-110)
Angular grid pruning method      GridPruning ... 4 (adaptive)
Weight generation scheme         WeightScheme... mBecke (2022)
Basis function cutoff            BFCut       ... 1.0000e-11
Integration weight cutoff        WCut        ... 1.0000e-14
Partially contracted basis set               ... on
Rotationally invariant grid construction     ... off
Angular grids for H and He will be reduced by one unit

Total number of grid points                  ...    42048
Total number of batches                      ...      341
Average number of points per batch           ...      123
Average number of grid points per atom       ...     1402
UseSFitting                                  ... on

GRIDX 3
-------
General Integration Accuracy     IntAcc      ... 4.338
Radial Grid Type                 RadialGrid  ... OptM3 with GC (2021)
Angular Grid (max. ang.)         AngularGrid ... 3 (Lebedev-194)
Angular grid pruning method      GridPruning ... 4 (adaptive)
Weight generation scheme         WeightScheme... mBecke (2022)
Basis function cutoff            BFCut       ... 1.0000e-11
Integration weight cutoff        WCut        ... 1.0000e-14
Partially contracted basis set               ... on
Rotationally invariant grid construction     ... off
Angular grids for H and He will be reduced by one unit

Total number of grid points                  ...    93385
Total number of batches                      ...      745
Average number of points per batch           ...      125
Average number of grid points per atom       ...     3113
UseSFitting                                  ... on
Initializing property integral containers    ... done (  0.0 sec)

SHARK setup successfully completed in   1.6 seconds

Maximum memory used throughout the entire STARTUP-calculation: 54.1 MB
-------------------------------------------------------------------------------
                                 ORCA GUESS
                   Start orbitals & Density for SCF / CASSCF
-------------------------------------------------------------------------------

------------
SCF SETTINGS
------------
Hamiltonian:
 Density Functional     Method          .... DFT(GTOs)
 Exchange Functional    Exchange        .... B88
   X-Alpha parameter    XAlpha          ....  0.666667
   Becke's b parameter  XBeta           ....  0.004200
 Correlation Functional Correlation     .... LYP
 LDA part of GGA corr.  LDAOpt          .... VWN-5
 Gradients option       PostSCFGGA      .... off
 Hybrid DFT is turned on
   Fraction HF Exchange ScalHFX         ....  0.200000
   Scaling of DF-GGA-X  ScalDFX         ....  0.720000
   Scaling of DF-GGA-C  ScalDFC         ....  0.810000
   Scaling of DF-LDA-C  ScalLDAC        ....  1.000000
   Perturbative correction              ....  0.000000
   NL short-range parameter             ....  4.800000
 RI-approximation to the Coulomb term is turned on
   Number of AuxJ basis functions       .... 1056
   RIJ-COSX (HFX calculated with COS-X)).... on


General Settings:
 Integral files         IntName         .... Diclofenac\Diclofenac_B3LYP_STO-3G\Diclofenac_B3LYP_STO-3G.orcainp
 Hartree-Fock type      HFTyp           .... RHF
 Total Charge           Charge          ....    0
 Multiplicity           Mult            ....    1
 Number of Electrons    NEL             ....  152
 Basis Dimension        Dim             ....  114
 Nuclear Repulsion      ENuc            ....   1642.8205568299 Eh

Convergence Acceleration:
 AO-DIIS                CNVDIIS         .... on
   Start iteration      DIISMaxIt       ....    12
   Startup error        DIISStart       ....  0.200000
   # of expansion vecs  DIISMaxEq       ....     5
   Bias factor          DIISBfac        ....   1.050
   Max. coefficient     DIISMaxC        ....  10.000
 MO-DIIS                CNVKDIIS        .... off
 Trust-Rad. Augm. Hess. CNVTRAH         .... auto
   Auto Start mean grad. ratio tolernc. ....  1.125000
   Auto Start start iteration           ....    50
   Auto Start num. interpolation iter.  ....    10
   Max. Number of Micro iterations      ....    24
   Max. Number of Macro iterations      .... Maxiter - #DIIS iter
   Number of Davidson start vectors     ....     2
   Converg. threshold    (grad. norm)   ....   1.000e-05
   Grad. Scal. Fac. for Micro threshold ....   0.100
   Minimum threshold for Micro iter.    ....   1.000e-02
   NR start threshold (gradient norm)   ....   1.000e-04
   Initial trust radius                 ....   0.400
   Minimum AH scaling param. (alpha)    ....   1.000
   Maximum AH scaling param. (alpha)    .... 1000.000
   Quad. conv. algorithm                .... NR
   White noise on init. David. guess    .... on
   Maximum white noise                  ....   0.010
   Pseudo random numbers                .... off
   Inactive MOs                         .... canonical
   Orbital update algorithm             .... Taylor
   Preconditioner                       .... Diag
   Full preconditioner red. dimension   ....   250
 SOSCF                  CNVSOSCF        .... on
   Start iteration      SOSCFMaxIt      ....   150
   Startup grad/error   SOSCFStart      ....  0.003300
   Hessian update       SOSCFHessUp     .... L-BFGS
 Level Shifting         CNVShift        .... on
   Level shift para.    LevelShift      ....    0.2500
   Turn off err/grad.   ShiftErr        ....    0.0010
 Zerner damping         CNVZerner       .... off
 Static damping         CNVDamp         .... on
   Fraction old density DampFac         ....    0.7000
   Max. Damping (<1)    DampMax         ....    0.9800
   Min. Damping (>=0)   DampMin         ....    0.0000
   Turn off err/grad.   DampErr         ....    0.1000

SCF Procedure:
 Maximum # iterations   MaxIter         ....   125
 SCF integral mode      SCFMode         .... Direct
   Integral package                     .... SHARK and LIBINT hybrid scheme
 Reset frequency        DirectResetFreq ....    20
 Integral Threshold     Thresh          ....  2.500e-11 Eh
 Primitive CutOff       TCut            ....  2.500e-12 Eh

Convergence Tolerance:
 Convergence Check Mode ConvCheckMode   .... Total+1el-Energy
 Convergence forced     ConvForced      .... 0
 Energy Change          TolE            ....  1.000e-08 Eh
 1-El. energy change                    ....  1.000e-05 Eh
 Orbital Gradient       TolG            ....  1.000e-05
 Orbital Rotation angle TolX            ....  1.000e-05
 DIIS Error             TolErr          ....  5.000e-07

------------------------------
INITIAL GUESS: MODEL POTENTIAL
------------------------------
Loading Hartree-Fock densities                     ... done
Calculating cut-offs                               ... done
Initializing the effective Hamiltonian             ... done
Setting up the integral package (SHARK)            ... done
Starting the Coulomb interaction                   ... done (   0.1 sec)
Making the grid                                    ... done (   0.2 sec)
Mapping shells                                     ... done
Starting the XC term evaluation                    ... done (   0.1 sec)
  promolecular density results
     # of electrons  =    151.993242283
     EX              =   -153.301574156
     EC              =     -5.463804699
     EX+EC           =   -158.765378856
Transforming the Hamiltonian                       ... done (   0.0 sec)
Diagonalizing the Hamiltonian                      ... done (   0.0 sec)
Back transforming the eigenvectors                 ... done (   0.0 sec)
Now organizing SCF variables                       ... done
                      ------------------
                      INITIAL GUESS DONE (   0.4 sec)
                      ------------------
             **** ENERGY FILE WAS UPDATED (Diclofenac\Diclofenac_B3LYP_STO-3G\Diclofenac_B3LYP_STO-3G.orcainp.en.tmp) ****
Finished Guess after   0.5 sec
Maximum memory used throughout the entire GUESS-calculation: 23.0 MB

-------------------------------------------------------------------------------------------
                                      ORCA LEAN-SCF
                              memory conserving SCF solver
-------------------------------------------------------------------------------------------

--------------------
CPCM SOLVATION MODEL
--------------------
CPCM parameters:
  Epsilon                                         ...      80.1510
  Refrac                                          ...       1.3328
  Rsolv                                           ...       1.3000
  Surface type                                    ... GAUSSIAN VDW
  Discretization scheme                           ... Constant charge density
    Threshold for H atoms                         ...       5.0000 (charges/Ang^2)
    Threshold for non-H atoms                     ...       5.0000 (charges/Ang^2)
  Epsilon function type                           ...         CPCM
Solvent:                                          ... WATER
Radii:
  Scheme                                          ... Element-dependent radii
  Radius for O  used is    3.4469 Bohr (=   1.8240 Ang.)
  Radius for C  used is    3.8550 Bohr (=   2.0400 Ang.)
  Radius for N  used is    3.5149 Bohr (=   1.8600 Ang.)
  Radius for Cl used is    3.9684 Bohr (=   2.1000 Ang.)
  Radius for H  used is    2.4944 Bohr (=   1.3200 Ang.)
Calculating surface                               ...        done! (  0.0s)
Cavity surface points                             ...         2848
Cavity Volume                                     ...    2155.8247
Cavity Surface-area                               ...    1091.7714
Calculating surface distance matrix               ...        done! (  0.0s)
Performing Cholesky decomposition & store         ...        done! (  0.2s)
Overall time for CPCM initialization              ...                 0.2s

----------------------------------------D-I-I-S--------------------------------------------
Iteration    Energy (Eh)           Delta-E    RMSDP     MaxDP     DIISErr   Damp  Time(sec)
-------------------------------------------------------------------------------------------
               ***  Starting incremental Fock matrix formation  ***
    1    -1645.5218385723239862     0.00e+00  4.69e-03  9.93e-02  1.33e-01  0.700   3.2
    2    -1645.5955692261143213    -7.37e-02  3.40e-03  6.60e-02  6.06e-02  0.700   1.8
                               ***Turning on AO-DIIS***
    3    -1645.6262085223308986    -3.06e-02  1.50e-03  2.78e-02  3.66e-02  0.700   1.8
    4    -1645.6443856173184486    -1.82e-02  2.58e-03  4.96e-02  2.17e-02  0.000   1.8
    5    -1645.6831639010108574    -3.88e-02  4.62e-04  7.11e-03  4.77e-03  0.000   1.8
                              *** Initializing SOSCF ***
---------------------------------------S-O-S-C-F--------------------------------------
Iteration    Energy (Eh)           Delta-E    RMSDP     MaxDP     MaxGrad    Time(sec)
--------------------------------------------------------------------------------------
    6    -1645.6835229496361990    -3.59e-04  1.27e-04  2.04e-03  1.46e-03     1.7
               *** Restarting incremental Fock matrix formation ***
    7    -1645.6835684222285181    -4.55e-05  9.50e-05  1.27e-03  3.77e-04     3.3
    8    -1645.6835700619315048    -1.64e-06  4.45e-05  7.31e-04  3.61e-04     2.3
    9    -1645.6835722608132073    -2.20e-06  2.42e-05  5.54e-04  1.47e-04     2.1
   10    -1645.6835722682219512    -7.41e-09  1.26e-05  3.27e-04  1.23e-04     1.9
                 **** Energy Check signals convergence ****

               *****************************************************
               *                     SUCCESS                       *
               *           SCF CONVERGED AFTER  10 CYCLES          *
               *****************************************************

Recomputing exchange energy using gridx3       ... done (    4.544 sec)
Old exchange energy                            :    -30.969895279 Eh
New exchange energy                            :    -30.969962332 Eh
Exchange energy change after final integration :     -0.000067053 Eh
Total energy after final integration           :  -1645.683639321 Eh
             **** ENERGY FILE WAS UPDATED (Diclofenac\Diclofenac_B3LYP_STO-3G\Diclofenac_B3LYP_STO-3G.orcainp.en.tmp) ****

----------------
TOTAL SCF ENERGY
----------------

Total Energy       :      -1645.68363932099828 Eh          -44781.32846 eV

Components:
Nuclear Repulsion  :       1642.82055682993882 Eh           44703.42003 eV
Electronic Energy  :      -3288.49401011586224 Eh          -89484.47132 eV
One Electron Energy:      -5530.79674588437047 Eh         -150500.63076 eV
Two Electron Energy:       2242.30273576850823 Eh           61016.15944 eV
CPCM Dielectric    :         -0.01011898229840 Eh              -0.27535 eV

Virial components:
Potential Energy   :      -3262.15833296766596 Eh          -88767.84111 eV
Kinetic Energy     :       1616.47469364666745 Eh           43986.51265 eV
Virial Ratio       :          2.01806953476546

DFT components:
N(Alpha)           :       75.999968992954 electrons
N(Beta)            :       75.999968992954 electrons
N(Total)           :      151.999937985909 electrons
E(X)               :     -122.562713441234 Eh       
E(C)               :       -6.401389907117 Eh       
E(XC)              :     -128.964103348352 Eh       

CPCM Solvation Model Properties:
Surface-charge          :         -0.00906280693349
Corrected charge        :         -0.00000000000000
Outlying charge corr.   :          0.00000459374039 Eh               0.00013 eV
Free-energy (cav+disp)  :  This term is not implemented in the current solvation scheme

---------------
SCF CONVERGENCE
---------------

  Last Energy change         ...    7.4087e-09  Tolerance :   1.0000e-08
  Last MAX-Density change    ...    3.2691e-04  Tolerance :   1.0000e-07
  Last RMS-Density change    ...    1.2609e-05  Tolerance :   5.0000e-09
  Last DIIS Error            ...    1.4603e-03  Tolerance :   5.0000e-07
  Last Orbital Gradient      ...    1.2337e-04  Tolerance :   1.0000e-05
  Last Orbital Rotation      ...    1.4426e-04  Tolerance :   1.0000e-05


----------------
ORBITAL ENERGIES
----------------

  NO   OCC          E(Eh)            E(eV) 
   0   2.0000    -100.476137     -2734.0947 
   1   2.0000    -100.471562     -2733.9702 
   2   2.0000     -18.952303      -515.7184 
   3   2.0000     -18.865661      -513.3607 
   4   2.0000     -14.174262      -385.7013 
   5   2.0000     -10.120107      -275.3821 
   6   2.0000     -10.091585      -274.6060 
   7   2.0000     -10.075298      -274.1628 
   8   2.0000     -10.074501      -274.1411 
   9   2.0000     -10.059265      -273.7265 
  10   2.0000     -10.035032      -273.0671 
  11   2.0000     -10.027936      -272.8740 
  12   2.0000     -10.026522      -272.8355 
  13   2.0000     -10.017933      -272.6018 
  14   2.0000     -10.017076      -272.5785 
  15   2.0000     -10.001347      -272.1505 
  16   2.0000     -10.000913      -272.1387 
  17   2.0000      -9.999565      -272.1020 
  18   2.0000      -9.995710      -271.9971 
  19   2.0000      -9.275196      -252.3909 
  20   2.0000      -9.270750      -252.2699 
  21   2.0000      -7.053579      -191.9376 
  22   2.0000      -7.049237      -191.8195 
  23   2.0000      -7.038776      -191.5348 
  24   2.0000      -7.038428      -191.5254 
  25   2.0000      -7.034416      -191.4162 
  26   2.0000      -7.033811      -191.3997 
  27   2.0000      -1.055275       -28.7155 
  28   2.0000      -0.950352       -25.8604 
  29   2.0000      -0.906623       -24.6705 
  30   2.0000      -0.848290       -23.0831 
  31   2.0000      -0.827318       -22.5125 
  32   2.0000      -0.802342       -21.8328 
  33   2.0000      -0.773258       -21.0414 
  34   2.0000      -0.745272       -20.2799 
  35   2.0000      -0.715317       -19.4648 
  36   2.0000      -0.682764       -18.5789 
  37   2.0000      -0.680495       -18.5172 
  38   2.0000      -0.665113       -18.0986 
  39   2.0000      -0.585637       -15.9360 
  40   2.0000      -0.571233       -15.5440 
  41   2.0000      -0.559434       -15.2230 
  42   2.0000      -0.551162       -14.9979 
  43   2.0000      -0.531673       -14.4676 
  44   2.0000      -0.493339       -13.4244 
  45   2.0000      -0.482453       -13.1282 
  46   2.0000      -0.454040       -12.3551 
  47   2.0000      -0.440041       -11.9741 
  48   2.0000      -0.435973       -11.8634 
  49   2.0000      -0.427423       -11.6308 
  50   2.0000      -0.414079       -11.2677 
  51   2.0000      -0.403048       -10.9675 
  52   2.0000      -0.395570       -10.7640 
  53   2.0000      -0.388731       -10.5779 
  54   2.0000      -0.383239       -10.4285 
  55   2.0000      -0.376400       -10.2424 
  56   2.0000      -0.364994        -9.9320 
  57   2.0000      -0.346590        -9.4312 
  58   2.0000      -0.343785        -9.3549 
  59   2.0000      -0.338047        -9.1987 
  60   2.0000      -0.329662        -8.9706 
  61   2.0000      -0.324294        -8.8245 
  62   2.0000      -0.311663        -8.4808 
  63   2.0000      -0.301169        -8.1952 
  64   2.0000      -0.293421        -7.9844 
  65   2.0000      -0.283221        -7.7068 
  66   2.0000      -0.266719        -7.2578 
  67   2.0000      -0.262194        -7.1347 
  68   2.0000      -0.259348        -7.0572 
  69   2.0000      -0.253664        -6.9026 
  70   2.0000      -0.201744        -5.4897 
  71   2.0000      -0.197378        -5.3709 
  72   2.0000      -0.193648        -5.2694 
  73   2.0000      -0.189759        -5.1636 
  74   2.0000      -0.155170        -4.2224 
  75   2.0000      -0.130317        -3.5461 
  76   0.0000       0.062645         1.7046 
  77   0.0000       0.064927         1.7668 
  78   0.0000       0.088009         2.3948 
  79   0.0000       0.107967         2.9379 
  80   0.0000       0.112167         3.0522 
  81   0.0000       0.130529         3.5519 
  82   0.0000       0.183050         4.9810 
  83   0.0000       0.228375         6.2144 
  84   0.0000       0.253565         6.8999 
  85   0.0000       0.294913         8.0250 
  86   0.0000       0.311440         8.4747 
*Only the first 10 virtual orbitals were printed.

                    ********************************
                    * MULLIKEN POPULATION ANALYSIS *
                    ********************************

-----------------------
MULLIKEN ATOMIC CHARGES
-----------------------
   0 O :   -0.252347
   1 C :    0.243567
   2 O :   -0.245635
   3 C :   -0.172936
   4 C :   -0.008230
   5 C :   -0.083932
   6 C :   -0.095315
   7 C :   -0.087198
   8 C :   -0.092930
   9 C :    0.080943
  10 N :   -0.318559
  11 C :    0.097741
  12 C :    0.002554
  13 Cl:   -0.105325
  14 C :   -0.071111
  15 C :   -0.084386
  16 C :   -0.072338
  17 C :    0.001902
  18 Cl:   -0.106866
  19 H :    0.259446
  20 H :    0.107684
  21 H :    0.104211
  22 H :    0.086503
  23 H :    0.084262
  24 H :    0.087599
  25 H :    0.086482
  26 H :    0.240002
  27 H :    0.105879
  28 H :    0.101275
  29 H :    0.107058
Sum of atomic charges:    0.0000000

--------------------------------
MULLIKEN REDUCED ORBITAL CHARGES
--------------------------------
  0 O s       :     3.824371  s :     3.824371
      pz      :     1.512193  p :     4.427977
      px      :     1.463105
      py      :     1.452678

  1 C s       :     3.072934  s :     3.072934
      pz      :     0.956828  p :     2.683498
      px      :     0.949958
      py      :     0.776713

  2 O s       :     3.881918  s :     3.881918
      pz      :     1.446385  p :     4.363717
      px      :     1.464249
      py      :     1.453083

  3 C s       :     3.178394  s :     3.178394
      pz      :     0.990211  p :     2.994542
      px      :     0.961815
      py      :     1.042516

  4 C s       :     3.125680  s :     3.125680
      pz      :     1.025134  p :     2.882551
      px      :     0.929344
      py      :     0.928073

  5 C s       :     3.145046  s :     3.145046
      pz      :     1.005674  p :     2.938885
      px      :     0.946721
      py      :     0.986490

  6 C s       :     3.133994  s :     3.133994
      pz      :     1.017091  p :     2.961320
      px      :     0.977405
      py      :     0.966824

  7 C s       :     3.138826  s :     3.138826
      pz      :     1.001558  p :     2.948372
      px      :     0.983330
      py      :     0.963484

  8 C s       :     3.136009  s :     3.136009
      pz      :     1.027645  p :     2.956921
      px      :     0.936458
      py      :     0.992818

  9 C s       :     3.096580  s :     3.096580
      pz      :     1.032012  p :     2.822478
      px      :     0.877831
      py      :     0.912634

 10 N s       :     3.434611  s :     3.434611
      pz      :     1.594807  p :     3.883948
      px      :     1.170368
      py      :     1.118774

 11 C s       :     3.089049  s :     3.089049
      pz      :     0.979591  p :     2.813209
      px      :     0.993098
      py      :     0.840521

 12 C s       :     3.140837  s :     3.140837
      pz      :     0.933481  p :     2.856609
      px      :     0.994683
      py      :     0.928445

 13 Cls       :     5.958129  s :     5.958129
      pz      :     3.613052  p :    11.147196
      px      :     3.743851
      py      :     3.790293

 14 C s       :     3.139424  s :     3.139424
      pz      :     1.002762  p :     2.931687
      px      :     0.995318
      py      :     0.933607

 15 C s       :     3.133288  s :     3.133288
      pz      :     0.977672  p :     2.951098
      px      :     0.975487
      py      :     0.997940

 16 C s       :     3.138013  s :     3.138013
      pz      :     0.993802  p :     2.934324
      px      :     1.000231
      py      :     0.940291

 17 C s       :     3.142978  s :     3.142978
      pz      :     0.919792  p :     2.855120
      px      :     0.981077
      py      :     0.954251

 18 Cls       :     5.958451  s :     5.958451
      pz      :     3.585748  p :    11.148415
      px      :     3.680715
      py      :     3.881952

 19 H s       :     0.740554  s :     0.740554

 20 H s       :     0.892316  s :     0.892316

 21 H s       :     0.895789  s :     0.895789

 22 H s       :     0.913497  s :     0.913497

 23 H s       :     0.915738  s :     0.915738

 24 H s       :     0.912401  s :     0.912401

 25 H s       :     0.913518  s :     0.913518

 26 H s       :     0.759998  s :     0.759998

 27 H s       :     0.894121  s :     0.894121

 28 H s       :     0.898725  s :     0.898725

 29 H s       :     0.892942  s :     0.892942



                     *******************************
                     * LOEWDIN POPULATION ANALYSIS *
                     *******************************

----------------------
LOEWDIN ATOMIC CHARGES
----------------------
   0 O :   -0.142375
   1 C :    0.164036
   2 O :   -0.196172
   3 C :   -0.103261
   4 C :   -0.013353
   5 C :   -0.049948
   6 C :   -0.059990
   7 C :   -0.048006
   8 C :   -0.067526
   9 C :    0.058509
  10 N :   -0.167684
  11 C :    0.058965
  12 C :   -0.017907
  13 Cl:   -0.066526
  14 C :   -0.042925
  15 C :   -0.048975
  16 C :   -0.043957
  17 C :   -0.019619
  18 Cl:   -0.066347
  19 H :    0.193132
  20 H :    0.067158
  21 H :    0.064101
  22 H :    0.048542
  23 H :    0.046831
  24 H :    0.049118
  25 H :    0.048956
  26 H :    0.166053
  27 H :    0.063942
  28 H :    0.060200
  29 H :    0.065031

-------------------------------
LOEWDIN REDUCED ORBITAL CHARGES
-------------------------------
  0 O s       :     3.677566  s :     3.677566
      pz      :     1.518198  p :     4.464809
      px      :     1.471058
      py      :     1.475553

  1 C s       :     3.033222  s :     3.033222
      pz      :     0.976763  p :     2.802742
      px      :     0.971080
      py      :     0.854900

  2 O s       :     3.768393  s :     3.768393
      pz      :     1.458527  p :     4.427780
      px      :     1.476030
      py      :     1.493222

  3 C s       :     3.015976  s :     3.015976
      pz      :     1.021988  p :     3.087285
      px      :     1.004335
      py      :     1.060962

  4 C s       :     3.026690  s :     3.026690
      pz      :     1.028557  p :     2.986663
      px      :     0.975328
      py      :     0.982778

  5 C s       :     3.024510  s :     3.024510
      pz      :     1.007085  p :     3.025438
      px      :     1.002550
      py      :     1.015803

  6 C s       :     3.012025  s :     3.012025
      pz      :     1.018207  p :     3.047964
      px      :     1.016046
      py      :     1.013711

  7 C s       :     3.015327  s :     3.015327
      pz      :     1.002244  p :     3.032679
      px      :     1.016868
      py      :     1.013567

  8 C s       :     3.019052  s :     3.019052
      pz      :     1.030027  p :     3.048473
      px      :     0.995756
      py      :     1.022691

  9 C s       :     3.009390  s :     3.009390
      pz      :     1.032395  p :     2.932101
      px      :     0.933758
      py      :     0.965948

 10 N s       :     3.247772  s :     3.247772
      pz      :     1.594853  p :     3.919912
      px      :     1.182568
      py      :     1.142491

 11 C s       :     3.008484  s :     3.008484
      pz      :     1.011252  p :     2.932551
      px      :     1.021600
      py      :     0.899699

 12 C s       :     3.051759  s :     3.051759
      pz      :     0.970170  p :     2.966148
      px      :     1.019211
      py      :     0.976767

 13 Cls       :     5.911082  s :     5.911082
      pz      :     3.616932  p :    11.155444
      px      :     3.745635
      py      :     3.792877

 14 C s       :     3.020507  s :     3.020507
      pz      :     1.019294  p :     3.022418
      px      :     1.012060
      py      :     0.991064

 15 C s       :     3.010921  s :     3.010921
      pz      :     1.008656  p :     3.038054
      px      :     1.004188
      py      :     1.025210

 16 C s       :     3.018891  s :     3.018891
      pz      :     1.016014  p :     3.025066
      px      :     1.016333
      py      :     0.992720

 17 C s       :     3.054711  s :     3.054711
      pz      :     0.954494  p :     2.964908
      px      :     1.010621
      py      :     0.999793

 18 Cls       :     5.910339  s :     5.910339
      pz      :     3.589875  p :    11.156008
      px      :     3.683215
      py      :     3.882917

 19 H s       :     0.806868  s :     0.806868

 20 H s       :     0.932842  s :     0.932842

 21 H s       :     0.935899  s :     0.935899

 22 H s       :     0.951458  s :     0.951458

 23 H s       :     0.953169  s :     0.953169

 24 H s       :     0.950882  s :     0.950882

 25 H s       :     0.951044  s :     0.951044

 26 H s       :     0.833947  s :     0.833947

 27 H s       :     0.936058  s :     0.936058

 28 H s       :     0.939800  s :     0.939800

 29 H s       :     0.934969  s :     0.934969



                      *****************************
                      * MAYER POPULATION ANALYSIS *
                      *****************************

  NA   - Mulliken gross atomic population
  ZA   - Total nuclear charge
  QA   - Mulliken gross atomic charge
  VA   - Mayer's total valence
  BVA  - Mayer's bonded valence
  FA   - Mayer's free valence

  ATOM       NA         ZA         QA         VA         BVA        FA
  0 O      8.2523     8.0000    -0.2523     2.3199     2.3199    -0.0000
  1 C      5.7564     6.0000     0.2436     3.9184     3.9184     0.0000
  2 O      8.2456     8.0000    -0.2456     2.2379     2.2379     0.0000
  3 C      6.1729     6.0000    -0.1729     3.9576     3.9576     0.0000
  4 C      6.0082     6.0000    -0.0082     3.9699     3.9699    -0.0000
  5 C      6.0839     6.0000    -0.0839     3.9704     3.9704    -0.0000
  6 C      6.0953     6.0000    -0.0953     3.9743     3.9743    -0.0000
  7 C      6.0872     6.0000    -0.0872     3.9735     3.9735     0.0000
  8 C      6.0929     6.0000    -0.0929     3.9701     3.9701     0.0000
  9 C      5.9191     6.0000     0.0809     3.9413     3.9413     0.0000
 10 N      7.3186     7.0000    -0.3186     3.2890     3.2890     0.0000
 11 C      5.9023     6.0000     0.0977     3.9537     3.9537     0.0000
 12 C      5.9974     6.0000     0.0026     3.9138     3.9138    -0.0000
 13 Cl    17.1053    17.0000    -0.1053     1.1109     1.1109     0.0000
 14 C      6.0711     6.0000    -0.0711     3.9678     3.9678     0.0000
 15 C      6.0844     6.0000    -0.0844     3.9714     3.9714     0.0000
 16 C      6.0723     6.0000    -0.0723     3.9680     3.9680     0.0000
 17 C      5.9981     6.0000     0.0019     3.9096     3.9096    -0.0000
 18 Cl    17.1069    17.0000    -0.1069     1.1169     1.1169     0.0000
 19 H      0.7406     1.0000     0.2594     0.9327     0.9327     0.0000
 20 H      0.8923     1.0000     0.1077     0.9884     0.9884     0.0000
 21 H      0.8958     1.0000     0.1042     0.9891     0.9891     0.0000
 22 H      0.9135     1.0000     0.0865     0.9925     0.9925    -0.0000
 23 H      0.9157     1.0000     0.0843     0.9929     0.9929     0.0000
 24 H      0.9124     1.0000     0.0876     0.9923     0.9923     0.0000
 25 H      0.9135     1.0000     0.0865     0.9925     0.9925     0.0000
 26 H      0.7600     1.0000     0.2400     0.9424     0.9424     0.0000
 27 H      0.8941     1.0000     0.1059     0.9888     0.9888    -0.0000
 28 H      0.8987     1.0000     0.1013     0.9897     0.9897     0.0000
 29 H      0.8929     1.0000     0.1071     0.9885     0.9885    -0.0000

  Mayer bond orders larger than 0.100000
B(  0-O ,  1-C ) :   1.0653 B(  0-O ,  2-O ) :   0.2463 B(  0-O , 19-H ) :   0.8859 
B(  1-C ,  2-O ) :   1.8748 B(  1-C ,  3-C ) :   0.9368 B(  3-C ,  4-C ) :   0.9902 
B(  3-C , 20-H ) :   0.9451 B(  3-C , 21-H ) :   0.9612 B(  4-C ,  5-C ) :   1.4126 
B(  4-C ,  7-C ) :   0.1075 B(  4-C ,  9-C ) :   1.3388 B(  5-C ,  6-C ) :   1.4331 
B(  5-C ,  8-C ) :   0.1080 B(  5-C , 22-H ) :   0.9609 B(  6-C ,  7-C ) :   1.4232 
B(  6-C , 23-H ) :   0.9629 B(  7-C ,  8-C ) :   1.4421 B(  7-C , 24-H ) :   0.9629 
B(  8-C ,  9-C ) :   1.3629 B(  8-C , 25-H ) :   0.9610 B(  9-C , 10-N ) :   1.0482 
B( 10-N , 11-C ) :   1.0963 B( 10-N , 26-H ) :   0.8356 B( 11-C , 12-C ) :   1.3148 
B( 11-C , 17-C ) :   1.3101 B( 12-C , 13-Cl) :   0.9794 B( 12-C , 14-C ) :   1.4096 
B( 14-C , 15-C ) :   1.4246 B( 14-C , 17-C ) :   0.1005 B( 14-C , 27-H ) :   0.9583 
B( 15-C , 16-C ) :   1.4217 B( 15-C , 28-H ) :   0.9596 B( 16-C , 17-C ) :   1.4134 
B( 16-C , 29-H ) :   0.9580 B( 17-C , 18-Cl) :   0.9770 

-------
TIMINGS
-------

Total SCF time: 0 days 0 hours 0 min 26 sec 

Total time                  ....      26.541 sec
Sum of individual times     ....      26.488 sec  ( 99.8%)

SCF preparation             ....       0.271 sec  (  1.0%)
Fock matrix formation       ....      26.111 sec  ( 98.4%)
  Startup                   ....       0.007 sec  (  0.0% of F)
  Split-RI-J                ....       2.390 sec  (  9.2% of F)
  Chain of spheres X        ....      16.699 sec  ( 64.0% of F)
  XC integration            ....       2.726 sec  ( 10.4% of F)
    Basis function eval.    ....       1.165 sec  ( 42.7% of XC)
    Density eval.           ....       0.503 sec  ( 18.5% of XC)
    XC-Functional eval.     ....       0.291 sec  ( 10.7% of XC)
    XC-Potential eval.      ....       0.444 sec  ( 16.3% of XC)
  CPCM terms                ....       4.228 sec  ( 16.2% of F)
Diagonalization             ....       0.000 sec  (  0.0%)
Density matrix formation    ....       0.022 sec  (  0.1%)
Total Energy calculation    ....       0.008 sec  (  0.0%)
Population analysis         ....       0.009 sec  (  0.0%)
Orbital Transformation      ....       0.008 sec  (  0.0%)
Orbital Orthonormalization  ....       0.000 sec  (  0.0%)
DIIS solution               ....       0.043 sec  (  0.2%)
SOSCF solution              ....       0.016 sec  (  0.1%)
Finished LeanSCF after  26.6 sec

Maximum memory used throughout the entire LEANSCF-calculation: 70.4 MB

-------------------------   --------------------
FINAL SINGLE POINT ENERGY     -1645.683639320998
-------------------------   --------------------

------------------------------------------------------------------------------
                         ORCA SCF GRADIENT CALCULATION
------------------------------------------------------------------------------

Nuc. rep. gradient        (SHARK) ... done (  0.0 sec)
HCore & Overlap gradient  (SHARK) ... done (  0.1 sec)
Split-RIJ-J gradient      (SHARK) ... done (  0.9 sec)
COSX-gradient                     ... done ( 11.8 sec)
XC gradient                       ... done (  3.1 sec)
CPCM gradient                     ... done (  0.7 sec)

------------------
CARTESIAN GRADIENT
------------------

   1   O   :   -0.013642294   -0.080309443    0.014776461
   2   C   :   -0.002701924    0.018177464    0.008560882
   3   O   :    0.017289838    0.054647538   -0.023255021
   4   C   :   -0.015162331    0.004343612    0.028982757
   5   C   :   -0.009318958    0.016840914    0.001980393
   6   C   :    0.007092993   -0.002117088   -0.001627425
   7   C   :   -0.010157008    0.009895448   -0.000240361
   8   C   :    0.003542561   -0.009755076   -0.001150725
   9   C   :   -0.014896111   -0.010307205   -0.002034232
  10   C   :   -0.015822943   -0.005964309    0.011249670
  11   N   :    0.013905620   -0.008594128    0.006282683
  12   C   :   -0.017430874    0.018990449   -0.010246131
  13   C   :    0.013476967   -0.030631681   -0.007852466
  14   Cl  :   -0.026346569    0.030025122    0.025511480
  15   C   :   -0.002554816   -0.001925790    0.003671069
  16   C   :   -0.003116479   -0.004457107    0.002515626
  17   C   :    0.006770378   -0.000700815   -0.003396504
  18   C   :   -0.011880736   -0.027223581    0.020517626
  19   Cl  :    0.025770731    0.022568383   -0.033353792
  20   H   :    0.028984016    0.005629111   -0.029921727
  21   H   :    0.005711961   -0.008946250    0.004637154
  22   H   :   -0.003720779    0.004364370   -0.000242355
  23   H   :    0.005283556    0.007075675    0.001244298
  24   H   :   -0.005446364    0.004777361   -0.000111105
  25   H   :   -0.008611224   -0.005548467   -0.003041123
  26   H   :    0.003526780   -0.008503322   -0.000398662
  27   H   :    0.028147195    0.017826544   -0.013710316
  28   H   :   -0.005217937   -0.000356535    0.006705145
  29   H   :    0.000598694   -0.008893321    0.000680654
  30   H   :    0.005926056   -0.000927873   -0.006733953

Difference to translation invariance:
           :   -0.0000000000    0.0000000001    0.0000000000

Difference to rotation invariance:
           :   -0.0003104779   -0.0000906763    0.0000150744

Norm of the Cartesian gradient     ...    0.1602325334
RMS gradient                       ...    0.0168899920
MAX gradient                       ...    0.0803094431

-------
TIMINGS
-------

Total SCF gradient time     ....       17.028 sec

One electron gradient       ....       0.119 sec  (  0.7%)
RI-J Coulomb gradient       ....       0.868 sec  (  5.1%)
COSX gradient               ....      11.832 sec  ( 69.5%)
XC gradient                 ....       3.127 sec  ( 18.4%)
CPCM gradient               ....       0.703 sec  (  4.1%)
   A-Matrix (El+Nuc)        ....       0.233 sec  (  1.4%)
   Potential                ....       0.470 sec  (  2.8%)

Maximum memory used throughout the entire SCFGRAD-calculation: 25.3 MB
------------------------------------------------------------------------------
                         ORCA GEOMETRY RELAXATION STEP
------------------------------------------------------------------------------

Reading the OPT-File                    .... done
Getting information on internals        .... done
Copying old internal coords+grads       .... done
Making the new internal coordinates     .... (2022 redundants) done
Validating the new internal coordinates .... (2022 redundants) done
Calculating the B-matrix                .... done
Calculating the G,G- and P matrices     .... done
Transforming gradient to internals      .... done
Projecting the internal gradient        .... done
Number of atoms                         ....  30
Number of internal coordinates          .... 150
Current Energy                          .... -1645.683639321 Eh
Current gradient norm                   ....     0.160232533 Eh/bohr
Maximum allowed component of the step   ....  0.300
Current trust radius                    ....  0.300
Evaluating the initial hessian          ....  (Almloef) done
Projecting the Hessian                  .... done
Forming the augmented Hessian           .... done
Diagonalizing the augmented Hessian     .... done
Last element of RFO vector              ....  0.936703056
Lowest eigenvalues of augmented Hessian:
 -0.047416433  0.012883916  0.015327312  0.015880405  0.019037756
Length of the computed step             ....  0.373784211
Warning: the length of the step is outside the trust region - taking restricted step instead
The input lambda is                     ....     0.011882
   iter:   5  x=   -0.040257  g=    7.783569 f(x)=     0.158127
[...]
 11 C s       :     3.107015  s :     3.107015
      pz      :     0.967236  p :     2.802705
      px      :     0.987821
      py      :     0.847648

 12 C s       :     3.169630  s :     3.169630
      pz      :     0.898657  p :     2.811075
      px      :     0.992286
      py      :     0.920132

 13 Cls       :     5.965484  s :     5.965484
      pz      :     3.621251  p :    11.171151
      px      :     3.753515
      py      :     3.796385

 14 C s       :     3.148317  s :     3.148317
      pz      :     1.001562  p :     2.925169
      px      :     0.994558
      py      :     0.929049

 15 C s       :     3.145433  s :     3.145433
      pz      :     0.965719  p :     2.933094
      px      :     0.975661
      py      :     0.991714

 16 C s       :     3.148014  s :     3.148014
      pz      :     0.993686  p :     2.925682
      px      :     0.998614
      py      :     0.933382

 17 C s       :     3.169910  s :     3.169910
      pz      :     0.885332  p :     2.811749
      px      :     0.992355
      py      :     0.934062

 18 Cls       :     5.965731  s :     5.965731
      pz      :     3.562303  p :    11.176609
      px      :     3.765041
      py      :     3.849265

 19 H s       :     0.746625  s :     0.746625

 20 H s       :     0.895087  s :     0.895087

 21 H s       :     0.895915  s :     0.895915

 22 H s       :     0.916126  s :     0.916126

 23 H s       :     0.918612  s :     0.918612

 24 H s       :     0.915932  s :     0.915932

 25 H s       :     0.915758  s :     0.915758

 26 H s       :     0.761458  s :     0.761458

 27 H s       :     0.891238  s :     0.891238

 28 H s       :     0.898023  s :     0.898023

 29 H s       :     0.890619  s :     0.890619



                     *******************************
                     * LOEWDIN POPULATION ANALYSIS *
                     *******************************

----------------------
LOEWDIN ATOMIC CHARGES
----------------------
   0 O :   -0.126293
   1 C :    0.164576
   2 O :   -0.150085
   3 C :   -0.089382
   4 C :   -0.022206
   5 C :   -0.051015
   6 C :   -0.064608
   7 C :   -0.046422
   8 C :   -0.073476
   9 C :    0.057812
  10 N :   -0.193694
  11 C :    0.056010
  12 C :    0.002755
  13 Cl:   -0.103209
  14 C :   -0.043887
  15 C :   -0.043664
  16 C :   -0.043899
  17 C :    0.001491
  18 Cl:   -0.107640
  19 H :    0.193356
  20 H :    0.064465
  21 H :    0.063692
  22 H :    0.046990
  23 H :    0.045059
  24 H :    0.046984
  25 H :    0.047977
  26 H :    0.172232
  27 H :    0.067110
  28 H :    0.061301
  29 H :    0.067672

-------------------------------
LOEWDIN REDUCED ORBITAL CHARGES
-------------------------------
  0 O s       :     3.709677  s :     3.709677
      pz      :     1.450793  p :     4.416616
      px      :     1.567585
      py      :     1.398238

  1 C s       :     3.095730  s :     3.095730
      pz      :     0.949688  p :     2.739695
      px      :     0.934389
      py      :     0.855618

  2 O s       :     3.782792  s :     3.782792
      pz      :     1.380946  p :     4.367293
      px      :     1.479828
      py      :     1.506520

  3 C s       :     3.041486  s :     3.041486
      pz      :     1.001278  p :     3.047896
      px      :     0.993448
      py      :     1.053171

  4 C s       :     3.039071  s :     3.039071
      pz      :     1.047374  p :     2.983135
      px      :     0.963555
      py      :     0.972206

  5 C s       :     3.031354  s :     3.031354
      pz      :     1.005847  p :     3.019661
      px      :     1.000644
      py      :     1.013170

  6 C s       :     3.024559  s :     3.024559
      pz      :     1.030815  p :     3.040048
      px      :     1.007019
      py      :     1.002215

  7 C s       :     3.027095  s :     3.027095
      pz      :     1.001642  p :     3.019327
      px      :     1.011304
      py      :     1.006380

  8 C s       :     3.027188  s :     3.027188
      pz      :     1.038179  p :     3.046288
      px      :     0.993013
      py      :     1.015096

  9 C s       :     3.032754  s :     3.032754
      pz      :     1.014836  p :     2.909434
      px      :     0.925726
      py      :     0.968872

 10 N s       :     3.301246  s :     3.301246
      pz      :     1.629655  p :     3.892448
      px      :     1.175278
      py      :     1.087515

 11 C s       :     3.025524  s :     3.025524
      pz      :     1.000221  p :     2.918465
      px      :     1.012201
      py      :     0.906043

 12 C s       :     3.081135  s :     3.081135
      pz      :     0.935361  p :     2.916110
      px      :     1.012269
      py      :     0.968480

 13 Cls       :     5.928315  s :     5.928315
      pz      :     3.623259  p :    11.174894
      px      :     3.754030
      py      :     3.797605

 14 C s       :     3.029246  s :     3.029246
      pz      :     1.019367  p :     3.014641
      px      :     1.008798
      py      :     0.986476

 15 C s       :     3.024259  s :     3.024259
      pz      :     1.000346  p :     3.019405
      px      :     0.999865
      py      :     1.019193

 16 C s       :     3.028775  s :     3.028775
      pz      :     1.015224  p :     3.015124
      px      :     1.011440
      py      :     0.988460

 17 C s       :     3.081807  s :     3.081807
      pz      :     0.920404  p :     2.916702
      px      :     1.014943
      py      :     0.981354

 18 Cls       :     5.928161  s :     5.928161
      pz      :     3.564349  p :    11.179479
      px      :     3.765402
      py      :     3.849727

 19 H s       :     0.806644  s :     0.806644

 20 H s       :     0.935535  s :     0.935535

 21 H s       :     0.936308  s :     0.936308

 22 H s       :     0.953010  s :     0.953010

 23 H s       :     0.954941  s :     0.954941

 24 H s       :     0.953016  s :     0.953016

 25 H s       :     0.952023  s :     0.952023

 26 H s       :     0.827768  s :     0.827768

 27 H s       :     0.932890  s :     0.932890

 28 H s       :     0.938699  s :     0.938699

 29 H s       :     0.932328  s :     0.932328



                      *****************************
                      * MAYER POPULATION ANALYSIS *
                      *****************************

  NA   - Mulliken gross atomic population
  ZA   - Total nuclear charge
  QA   - Mulliken gross atomic charge
  VA   - Mayer's total valence
  BVA  - Mayer's bonded valence
  FA   - Mayer's free valence

  ATOM       NA         ZA         QA         VA         BVA        FA
  0 O      8.2226     8.0000    -0.2226     2.3627     2.3627     0.0000
  1 C      5.7672     6.0000     0.2328     3.8925     3.8925    -0.0000
  2 O      8.2023     8.0000    -0.2023     2.2857     2.2857    -0.0000
  3 C      6.1592     6.0000    -0.1592     3.9465     3.9465    -0.0000
  4 C      6.0167     6.0000    -0.0167     3.9632     3.9632    -0.0000
  5 C      6.0855     6.0000    -0.0855     3.9687     3.9687    -0.0000
  6 C      6.0971     6.0000    -0.0971     3.9692     3.9692    -0.0000
  7 C      6.0853     6.0000    -0.0853     3.9701     3.9701    -0.0000
  8 C      6.0977     6.0000    -0.0977     3.9660     3.9660    -0.0000
  9 C      5.9236     6.0000     0.0764     3.9416     3.9416    -0.0000
 10 N      7.3207     7.0000    -0.3207     3.2736     3.2736    -0.0000
 11 C      5.9097     6.0000     0.0903     3.9551     3.9551    -0.0000
 12 C      5.9807     6.0000     0.0193     3.8960     3.8960     0.0000
 13 Cl    17.1366    17.0000    -0.1366     1.0780     1.0780    -0.0000
 14 C      6.0735     6.0000    -0.0735     3.9643     3.9643    -0.0000
 15 C      6.0785     6.0000    -0.0785     3.9663     3.9663    -0.0000
 16 C      6.0737     6.0000    -0.0737     3.9644     3.9644    -0.0000
 17 C      5.9817     6.0000     0.0183     3.8924     3.8924     0.0000
 18 Cl    17.1423    17.0000    -0.1423     1.0778     1.0778    -0.0000
 19 H      0.7466     1.0000     0.2534     0.9358     0.9358    -0.0000
 20 H      0.8951     1.0000     0.1049     0.9890     0.9890     0.0000
 21 H      0.8959     1.0000     0.1041     0.9892     0.9892    -0.0000
 22 H      0.9161     1.0000     0.0839     0.9930     0.9930    -0.0000
 23 H      0.9186     1.0000     0.0814     0.9934     0.9934    -0.0000
 24 H      0.9159     1.0000     0.0841     0.9929     0.9929    -0.0000
 25 H      0.9158     1.0000     0.0842     0.9929     0.9929    -0.0000
 26 H      0.7615     1.0000     0.2385     0.9431     0.9431    -0.0000
 27 H      0.8912     1.0000     0.1088     0.9882     0.9882     0.0000
 28 H      0.8980     1.0000     0.1020     0.9896     0.9896    -0.0000
 29 H      0.8906     1.0000     0.1094     0.9880     0.9880     0.0000

  Mayer bond orders larger than 0.100000
B(  0-O ,  1-C ) :   0.9744 B(  0-O ,  2-O ) :   0.2161 B(  0-O , 19-H ) :   0.8933 
B(  0-O , 26-H ) :   0.1607 B(  1-C ,  2-O ) :   1.9520 B(  1-C ,  3-C ) :   0.9113 
B(  3-C ,  4-C ) :   0.9835 B(  3-C , 20-H ) :   0.9524 B(  3-C , 21-H ) :   0.9615 
B(  4-C ,  5-C ) :   1.4249 B(  4-C ,  7-C ) :   0.1029 B(  4-C ,  9-C ) :   1.3196 
B(  5-C ,  6-C ) :   1.4228 B(  5-C ,  8-C ) :   0.1033 B(  5-C , 22-H ) :   0.9604 
B(  6-C ,  7-C ) :   1.4151 B(  6-C , 23-H ) :   0.9631 B(  7-C ,  8-C ) :   1.4484 
B(  7-C , 24-H ) :   0.9622 B(  8-C ,  9-C ) :   1.3532 B(  8-C , 25-H ) :   0.9589 
B(  9-C , 10-N ) :   1.0667 B( 10-N , 11-C ) :   1.1069 B( 10-N , 26-H ) :   0.7343 
B( 11-C , 12-C ) :   1.3051 B( 11-C , 17-C ) :   1.3079 B( 12-C , 13-Cl) :   0.9510 
B( 12-C , 14-C ) :   1.4235 B( 14-C , 15-C ) :   1.4143 B( 14-C , 27-H ) :   0.9563 
B( 15-C , 16-C ) :   1.4143 B( 15-C , 28-H ) :   0.9582 B( 16-C , 17-C ) :   1.4232 
B( 16-C , 29-H ) :   0.9562 B( 17-C , 18-Cl) :   0.9456 

-------
TIMINGS
-------

Total SCF time: 0 days 0 hours 0 min 14 sec 

Total time                  ....      14.794 sec
Sum of individual times     ....      14.746 sec  ( 99.7%)

SCF preparation             ....       0.264 sec  (  1.8%)
Fock matrix formation       ....      14.423 sec  ( 97.5%)
  Startup                   ....       0.004 sec  (  0.0% of F)
  Split-RI-J                ....       0.947 sec  (  6.6% of F)
  Chain of spheres X        ....      10.746 sec  ( 74.5% of F)
  XC integration            ....       1.084 sec  (  7.5% of F)
    Basis function eval.    ....       0.481 sec  ( 44.4% of XC)
    Density eval.           ....       0.210 sec  ( 19.4% of XC)
    XC-Functional eval.     ....       0.119 sec  ( 11.0% of XC)
    XC-Potential eval.      ....       0.155 sec  ( 14.3% of XC)
  CPCM terms                ....       1.619 sec  ( 11.2% of F)
Diagonalization             ....       0.000 sec  (  0.0%)
Density matrix formation    ....       0.007 sec  (  0.0%)
Total Energy calculation    ....       0.006 sec  (  0.0%)
Population analysis         ....       0.028 sec  (  0.2%)
Orbital Transformation      ....       0.003 sec  (  0.0%)
Orbital Orthonormalization  ....       0.000 sec  (  0.0%)
DIIS solution               ....       0.004 sec  (  0.0%)
SOSCF solution              ....       0.011 sec  (  0.1%)
Finished LeanSCF after  14.9 sec

Maximum memory used throughout the entire LEANSCF-calculation: 71.8 MB

-------------------------   --------------------
FINAL SINGLE POINT ENERGY     -1645.720566105774
-------------------------   --------------------

                                *** OPTIMIZATION RUN DONE ***


------------------------------------------------------------------------------
                              ORCA PROPERTY CALCULATIONS
------------------------------------------------------------------------------

GBWName                                 ... Diclofenac\Diclofenac_B3LYP_STO-3G\Diclofenac_B3LYP_STO-3G.orcainp.gbw
Number of atoms                         ...     30
Number of basis functions               ...    114
Max core memory                         ...   1024 MB

Electric properties:
Dipole moment                           ... YES
Quadrupole moment                       ...  NO
Static polarizability (Dipole/Dipole)   ...  NO
Static polarizability (Dipole/Quad.)    ...  NO
Static polarizability (Quad./Quad.)     ...  NO
Static polarizability (Velocity)        ...  NO

Atomic electric properties:
Dipole moment                           ...  NO
Quadrupole moment                       ...  NO
Static polarizability                   ...  NO

Choice of electric origin               ... Center of mass
Position of electric origin             ...     7.934075     2.290084    -1.236086

General magnetic properties:
Magnetizability                         ...  NO

EPR properties:
g-Tensor (aka g-matrix)                 ...  NO
Zero-Field splitting spin-orbit         ...  NO
Zero-field splitting spin-spin          ...  NO
Hyperfine couplings                     ...  NO (   0 nuclei)
Quadrupole couplings                    ...  NO (   0 nuclei)
Contact density                         ...  NO (   0 nuclei)

NMR properties:
Chemical shifts                         ...  NO (   0 nuclei)
Spin-rotation constants                 ...  NO (   0 nuclei)
Spin-spin couplings                     ...  NO (   0 nuclei,    0 pairs)

Choice of magnetic origin               ... GIAO
Position of magnetic origin             ...     0.000000     0.000000     0.000000

Properties with geometric perturbations:
SCF Hessian                             ...  NO
IR spectrum                             ...  NO
VCD spectrum                            ...  NO
X-ray spectroscopy properties:
SCF XES/XAS/RIXS spectra                ...  NO


-------------
DIPOLE MOMENT
-------------

Method             : SCF
Type of density    : Electron Density
Multiplicity       :   1
Irrep              :   0
Energy             : -1645.7205661057735142 Eh
Relativity type    : 
Basis              : AO
                                X                 Y                 Z
Electronic contribution:     -6.894490345       6.263495787      -0.165324087
Nuclear contribution   :      6.148804585      -5.840480676       0.478876151
                        -----------------------------------------
Total Dipole Moment    :     -0.745685759       0.423015111       0.313552065
                        -----------------------------------------
Magnitude (a.u.)       :      0.912854826
Magnitude (Debye)      :      2.320292571



--------------------
Rotational spectrum 
--------------------
 
Rotational constants in cm-1:             0.013173             0.008910             0.006187 
Rotational constants in MHz :           394.913463           267.105845           185.480861 

Dipole components along the rotational axes: 
x,y,z [a.u.] :    -0.465597    -0.784930    -0.020204 
x,y,z [Debye]:    -1.183454    -1.995134    -0.051355 

 

Dipole moment calculation done in   0.0 sec 

Maximum memory used throughout the entire PROP-calculation: 10.0 MB

--------------------------------
SUGGESTED CITATIONS FOR THIS RUN
--------------------------------

Below you find a list of papers that are relevant to this ORCA run
We neither can nor want to force you to cite these papers, but we appreciate if you do
You receive ORCA, which is the product of decades of hard work by many enthusiastic individuals, for free
The only thing we kindly ask in return is that you cite our papers,
We deeply appreciate it, if you show your appreciation for ORCA by not just citing the generic ORCA reference.

Please note that relegating all ORCA citations to the supporting information does *not* help us.
SI sections are not indexed - citations you put there will not count into any citation statistics
But we need these citations in order to attract the funding resources that allow us to do what we are doing

Therefore, if you are a happy ORCA user, please consider citing a few of the papers listed below in the main body of your paper

In addition to the list printed below, the program has created the file Diclofenac\Diclofenac_B3LYP_STO-3G\Diclofenac_B3LYP_STO-3G.orcainp.bibtex that contains the list in bibtex format
You can import this file easily into all common literature databanks and citation aid programs


List of essential papers. We consider these as the minimum necessary citations

  1. Neese,F.
     Software update: the ORCA program system, version 5.0
     WIRES Comput. Molec. Sci., 2022 12(1)e1606
     doi.org/10.1002/wcms.1606

List of papers to cite with high priority. The work reported in these papers was absolutely
necessary for this run to complete.
Our perspective: the developers of density functionals and basis sets usually get cited in chemistry papers
Good! But without the algorithms to do something with them, the functionals or basis sets would not do anything.
Hence, in our opinion, the algorithm design and method developments papers are equally worthy of getting cited

  1. Neese,F.
     An improvement of the resolution of the identity approximation for the formation of the Coulomb matrix
     J. Comp. Chem., 2003 24(14)1740-1747
     doi.org/10.1002/jcc.10318
  2. Neese,F.; Wennmohs,F.; Hansen,A.; Becker,U.
     Efficient, approximate and parallel Hartree-Fock and hybrid DFT calculations. A 'chain-of-spheres' algorithm for the Hartree-Fock exchange
     Chem. Phys., 2009 356(1-3)98-109
     doi.org/10.1016/j.chemphys.2008.10.036
  3. Garcia-Rates,M.; Neese,F.
     Effect of the Solute Cavity on the Solvation Energy and its Derivatives within the Framework of the Gaussian Charge Scheme
     J. Comput. Chem., 2020 41 922-939
     doi.org/10.1002/jcc.26139
  4. Helmich-Paris,B.; de Souza,B.; Neese,F.; Izsák,R.
     An improved chain of spheres for exchange algorithm
     J. Chem. Phys., 2021 155 104109
     doi.org/doi: 10.1063/5.0058766.
  5. Neese,F.
     The SHARK Integral Generation and Digestion System
     J. Comp. Chem., 2022  1-16
     doi.org/10.1002/jcc.26942

List of suggested additional citations. These are papers that are important in the 'surrounding' of 
of this run, or papers that preceded the highly important papers. If you like your results we are grateful for a citation.

  1. Izsak,R.; Neese,F.
     An overlap fitted chain of spheres exchange method
     J. Chem. Phys., 2011 135 144105
     doi.org/10.1063/1.3646921
  2. Izsak,R.; Hansen,A.; Neese,F.
     The resolution of identity and chain of spheres approximations for the LPNO-CCSD singles Fock term
     Molec. Phys., 2012 110 2413-2417
     doi.org/10.1080/00268976.2012.687466
  3. Neese,F.
     The ORCA program system
     WIRES Comput. Molec. Sci., 2012 2(1)73-78
     doi.org/10.1002/wcms.81
  4. Izsak,R.; Neese,F.; Klopper,W.
     Robust fitting techniques in the chain of spheres approximation to the Fock exchange: The role of the complementary space
     J. Chem. Phys., 2013 139 
     doi.org/10.1063/1.4819264
  5. Neese,F.
     Software update: the ORCA program system, version 4.0
     WIRES Comput. Molec. Sci., 2018 8(1)1-6
     doi.org/10.1002/wcms.1327
  6. Neese,F.; Wennmohs,F.; Becker,U.; Riplinger,C.
     The ORCA quantum chemistry program package
     J. Chem. Phys., 2020 152 Art. No. L224108
     doi.org/10.1063/5.0004608

List of optional additional citations

  1. Neese,F.
     Approximate second-order SCF convergence for spin unrestricted wavefunctions
     Chem. Phys. Lett., 2000 325(1-3)93-98
     doi.org/10.1016/s0009-2614(00)00662-x

Timings for individual modules:

Sum of individual times          ...      615.160 sec (=  10.253 min)
Startup calculation              ...       23.974 sec (=   0.400 min)   3.9 %
SCF iterations                   ...      349.830 sec (=   5.831 min)  56.9 %
Property calculations            ...        0.124 sec (=   0.002 min)   0.0 %
SCF Gradient evaluation          ...      241.066 sec (=   4.018 min)  39.2 %
Geometry relaxation              ...        0.166 sec (=   0.003 min)   0.0 %
                             ****ORCA TERMINATED NORMALLY****
TOTAL RUN TIME: 0 days 0 hours 10 minutes 16 seconds 670 msec
