
                                 *****************
                                 * O   R   C   A *
                                 *****************

                                            #,                                       
                                            ###                                      
                                            ####                                     
                                            #####                                    
                                            ######                                   
                                           ########,                                 
                                     ,,################,,,,,                         
                               ,,#################################,,                 
                          ,,##########################################,,             
                       ,#########################################, ''#####,          
                    ,#############################################,,   '####,        
                  ,##################################################,,,,####,       
                ,###########''''           ''''###############################       
              ,#####''   ,,,,##########,,,,          '''####'''          '####       
            ,##' ,,,,###########################,,,                        '##       
           ' ,,###''''                  '''############,,,                           
         ,,##''                                '''############,,,,        ,,,,,,###''
      ,#''                                            '''#######################'''  
     '                                                          ''''####''''         
             ,#######,   #######,   ,#######,      ##                                
            ,#'     '#,  ##    ##  ,#'     '#,    #''#        ######   ,####,        
            ##       ##  ##   ,#'  ##            #'  '#       #        #'  '#        
            ##       ##  #######   ##           ,######,      #####,   #    #        
            '#,     ,#'  ##    ##  '#,     ,#' ,#      #,         ##   #,  ,#        
             '#######'   ##     ##  '#######'  #'      '#     #####' # '####'        



                  #######################################################
                  #                        -***-                        #
                  #          Department of theory and spectroscopy      #
                  #    Directorship and core code : Frank Neese         #
                  #        Max Planck Institute fuer Kohlenforschung    #
                  #                Kaiser Wilhelm Platz 1               #
                  #                 D-45470 Muelheim/Ruhr               #
                  #                      Germany                        #
                  #                                                     #
                  #                  All rights reserved                #
                  #                        -***-                        #
                  #######################################################



                         Program Version 5.0.4 -  RELEASE  -

 With contributions from (in alphabetic order):
   Daniel Aravena         : Magnetic Suceptibility
   Michael Atanasov       : Ab Initio Ligand Field Theory (pilot matlab implementation)
   Alexander A. Auer      : GIAO ZORA, VPT2 properties, NMR spectrum
   Ute Becker             : Parallelization
   Giovanni Bistoni       : ED, misc. LED, open-shell LED, HFLD
   Martin Brehm           : Molecular dynamics
   Dmytro Bykov           : SCF Hessian
   Vijay G. Chilkuri      : MRCI spin determinant printing, contributions to CSF-ICE
   Dipayan Datta          : RHF DLPNO-CCSD density
   Achintya Kumar Dutta   : EOM-CC, STEOM-CC
   Dmitry Ganyushin       : Spin-Orbit,Spin-Spin,Magnetic field MRCI
   Miquel Garcia          : C-PCM and meta-GGA Hessian, CC/C-PCM, Gaussian charge scheme
   Yang Guo               : DLPNO-NEVPT2, F12-NEVPT2, CIM, IAO-localization
   Andreas Hansen         : Spin unrestricted coupled pair/coupled cluster methods
   Benjamin Helmich-Paris : MC-RPA, TRAH-SCF, COSX integrals
   Lee Huntington         : MR-EOM, pCC
   Robert Izsak           : Overlap fitted RIJCOSX, COSX-SCS-MP3, EOM
   Marcus Kettner         : VPT2
   Christian Kollmar      : KDIIS, OOCD, Brueckner-CCSD(T), CCSD density, CASPT2, CASPT2-K
   Simone Kossmann        : Meta GGA functionals, TD-DFT gradient, OOMP2, MP2 Hessian
   Martin Krupicka        : Initial AUTO-CI
   Lucas Lang             : DCDCAS
   Marvin Lechner         : AUTO-CI (C++ implementation), FIC-MRCC
   Dagmar Lenk            : GEPOL surface, SMD
   Dimitrios Liakos       : Extrapolation schemes; Compound Job, initial MDCI parallelization
   Dimitrios Manganas     : Further ROCIS development; embedding schemes
   Dimitrios Pantazis     : SARC Basis sets
   Anastasios Papadopoulos: AUTO-CI, single reference methods and gradients
   Taras Petrenko         : DFT Hessian,TD-DFT gradient, ASA, ECA, R-Raman, ABS, FL, XAS/XES, NRVS
   Peter Pinski           : DLPNO-MP2, DLPNO-MP2 Gradient
   Christoph Reimann      : Effective Core Potentials
   Marius Retegan         : Local ZFS, SOC
   Christoph Riplinger    : Optimizer, TS searches, QM/MM, DLPNO-CCSD(T), (RO)-DLPNO pert. Triples
   Tobias Risthaus        : Range-separated hybrids, TD-DFT gradient, RPA, STAB
   Michael Roemelt        : Original ROCIS implementation
   Masaaki Saitow         : Open-shell DLPNO-CCSD energy and density
   Barbara Sandhoefer     : DKH picture change effects
   Avijit Sen             : IP-ROCIS
   Kantharuban Sivalingam : CASSCF convergence, NEVPT2, FIC-MRCI
   Bernardo de Souza      : ESD, SOC TD-DFT
   Georgi Stoychev        : AutoAux, RI-MP2 NMR, DLPNO-MP2 response
   Willem Van den Heuvel  : Paramagnetic NMR
   Boris Wezisla          : Elementary symmetry handling
   Frank Wennmohs         : Technical directorship


 We gratefully acknowledge several colleagues who have allowed us to
 interface, adapt or use parts of their codes:
   Stefan Grimme, W. Hujo, H. Kruse, P. Pracht,  : VdW corrections, initial TS optimization,
                  C. Bannwarth, S. Ehlert          DFT functionals, gCP, sTDA/sTD-DF
   Ed Valeev, F. Pavosevic, A. Kumar             : LibInt (2-el integral package), F12 methods
   Garnet Chan, S. Sharma, J. Yang, R. Olivares  : DMRG
   Ulf Ekstrom                                   : XCFun DFT Library
   Mihaly Kallay                                 : mrcc  (arbitrary order and MRCC methods)
   Jiri Pittner, Ondrej Demel                    : Mk-CCSD
   Frank Weinhold                                : gennbo (NPA and NBO analysis)
   Christopher J. Cramer and Donald G. Truhlar   : smd solvation model
   Lars Goerigk                                  : TD-DFT with DH, B97 family of functionals
   V. Asgeirsson, H. Jonsson                     : NEB implementation
   FAccTs GmbH                                   : IRC, NEB, NEB-TS, DLPNO-Multilevel, CI-OPT
                                                   MM, QMMM, 2- and 3-layer-ONIOM, Crystal-QMMM,
                                                   LR-CPCM, SF, NACMEs, symmetry and pop. for TD-DFT,
                                                   nearIR, NL-DFT gradient (VV10), updates on ESD,
                                                   ML-optimized integration grids
   S Lehtola, MJT Oliveira, MAL Marques          : LibXC Library
   Liviu Ungur et al                             : ANISO software


 Your calculation uses the libint2 library for the computation of 2-el integrals
 For citations please refer to: http://libint.valeyev.net

 Your ORCA version has been built with support for libXC version: 5.1.0
 For citations please refer to: https://tddft.org/programs/libxc/

 This ORCA versions uses:
   CBLAS   interface :  Fast vector & matrix operations
   LAPACKE interface :  Fast linear algebra routines
   Shared memory     :  Shared parallel matrices


================================================================================

----- Orbital basis set information -----
Your calculation utilizes the basis: 6-311+G**
   H, Li - Ne  : R. Krishnan, J. S. Binkley, R. Seeger and J. A. Pople, J. Chem. Phys. 72, 650 (1980).
   Na - Ar     : A. D. McLean and G. S. Chandler J. Chem. Phys. 72, 5639, (1980).
   K  - Ca     : J.-P. Blaudeau, M. P. McGrath, L. A. Curtiss and L. Radom, J. Chem. Phys. 107, 5016 (1997).
   Ga - Kr     : L. A. Curtiss, M. P. McGrath, J.-P. Blandeau, N. E. Davis, R. C. Binning and L. Radom, J. Chem. Phys. 103, 6104 (1995).
   Pol./Diff.
   H, Li - Cl  : T. Clark, J. Chandrasekhar and P. v. R. Schleyer, J. Comp. Chem. 4, 294 (1983).
   H - Ne      : M. J. Frisch, J. A. Pople and J. S. Binkley, J. Chem. Phys. 80, 3265 (1984).

----- AuxJ basis set information -----
Your calculation utilizes the auxiliary basis: def2/J
   F. Weigend, Phys. Chem. Chem. Phys. 8, 1057 (2006).

================================================================================
                                        WARNINGS
                       Please study these warnings very carefully!
================================================================================


WARNING: Geometry Optimization
  ===> : Switching off AutoStart
         For restart on a previous wavefunction, please use MOREAD

INFO   : the flag for use of the SHARK integral package has been found!

================================================================================
                                       INPUT FILE
================================================================================
NAME = Ibuprofeno\Ibuprofeno_TPSS_6-311+G\Ibuprofeno_TPSS_6-311+G.orcainp
|  1> # ORCA input file
|  2> # 
|  3> !TPSS 6-311+G** Opt CPCM(WATER)
|  4> 
|  5> * xyz 0 1
|  6>    C        2.51158         1.94756         2.60573
|  7>    C        2.25536         0.96160         1.46447
|  8>    C        0.74524         0.81106         1.24936
|  9>    C        2.92580         1.40939         0.15172
| 10>    C        4.43034         1.55789         0.20717
| 11>    C        5.26167         0.46240         0.46590
| 12>    C        6.65476         0.59883         0.42551
| 13>    C        7.24791         1.83155         0.11193
| 14>    C        6.41047         2.93519        -0.11026
| 15>    C        5.02103         2.79876        -0.06128
| 16>    C        8.76102         1.93225        -0.05663
| 17>    C        9.09540         2.35216        -1.49427
| 18>    C        9.51272         2.83111         0.91923
| 19>    O        8.80891         3.32035         1.96468
| 20>    O       10.70739         3.08621         0.80213
| 21>    H        2.02343         1.60730         3.52519
| 22>    H        2.12250         2.94266         2.36454
| 23>    H        3.58050         2.04224         2.81968
| 24>    H        2.65201        -0.01745         1.76022
| 25>    H        0.28537         1.76747         0.97560
| 26>    H        0.25582         0.45223         2.16115
| 27>    H        0.53153         0.09307         0.45069
| 28>    H        2.47657         2.35652        -0.17573
| 29>    H        2.69614         0.68540        -0.64197
| 30>    H        4.83180        -0.51614         0.67097
| 31>    H        7.26813        -0.28320         0.60297
| 32>    H        6.82783         3.91067        -0.35575
| 33>    H        4.39927         3.66864        -0.26536
| 34>    H        9.18294         0.93039         0.10471
| 35>    H        8.71034         3.35199        -1.72490
| 36>    H        8.66417         1.65151        -2.21781
| 37>    H       10.17758         2.38088        -1.65965
| 38>    H        7.87163         3.04560         1.99566
| 39> *
| 40> 
| 41>                          ****END OF INPUT****
================================================================================

                       *****************************
                       * Geometry Optimization Run *
                       *****************************

Geometry optimization settings:
Update method            Update   .... BFGS
Choice of coordinates    CoordSys .... Z-matrix Internals
Initial Hessian          InHess   .... Almoef's Model

Convergence Tolerances:
Energy Change            TolE     ....  5.0000e-06 Eh
Max. Gradient            TolMAXG  ....  3.0000e-04 Eh/bohr
RMS Gradient             TolRMSG  ....  1.0000e-04 Eh/bohr
Max. Displacement        TolMAXD  ....  4.0000e-03 bohr
RMS Displacement         TolRMSD  ....  2.0000e-03 bohr
Strict Convergence                ....  False
------------------------------------------------------------------------------
                        ORCA OPTIMIZATION COORDINATE SETUP
------------------------------------------------------------------------------

The optimization will be done in new redundant internal coordinates
Making redundant internal coordinates   ...  (new redundants) done
Evaluating the initial hessian          ...  (Almloef) done
Evaluating the coordinates              ...  done
Calculating the B-matrix                .... done
Calculating the G-matrix                .... done
Diagonalizing the G-matrix              .... done
Small eigenvalue found = 1.041e-02
Small eigenvalue found = 2.009e-02
Small eigenvalue found = 2.511e-02
Small eigenvalue found = 2.950e-02
The first mode is                       ....   79
The number of degrees of freedom        ....   93

    -----------------------------------------------------------------
                    Redundant Internal Coordinates


    -----------------------------------------------------------------
         Definition                    Initial Value    Approx d2E/dq
    -----------------------------------------------------------------
      1. B(C   1,C   0)                  1.5298         0.373871   
      2. B(C   2,C   1)                  1.5328         0.369787   
      3. B(C   3,C   1)                  1.5406         0.359363   
      4. B(C   4,C   3)                  1.5129         0.397843   
      5. B(C   5,C   4)                  1.3993         0.603725   
      6. B(C   6,C   5)                  1.4003         0.601515   
      7. B(C   7,C   6)                  1.4035         0.594608   
      8. B(C   8,C   7)                  1.4031         0.595436   
      9. B(C   9,C   8)                  1.3970         0.608977   
     10. B(C   9,C   4)                  1.4003         0.601677   
     11. B(C  10,C   7)                  1.5258         0.379388   
     12. B(C  11,C  10)                  1.5346         0.367339   
     13. B(C  12,C  10)                  1.5249         0.380647   
     14. B(O  13,C  12)                  1.3519         0.643636   
     15. B(O  14,C  12)                  1.2272         1.017675   
     16. B(H  15,C   0)                  1.0952         0.353280   
     17. B(H  16,C   0)                  1.0953         0.353099   
     18. B(H  17,C   0)                  1.0942         0.354554   
     19. B(H  18,C   1)                  1.0970         0.351000   
     20. B(H  19,C   2)                  1.0960         0.352291   
     21. B(H  20,C   2)                  1.0953         0.353174   
     22. B(H  21,C   2)                  1.0950         0.353528   
     23. B(H  22,C   3)                  1.0982         0.349389   
     24. B(H  23,C   3)                  1.0986         0.348944   
     25. B(H  24,C   5)                  1.0883         0.362365   
     26. B(H  25,C   6)                  1.0889         0.361565   
     27. B(H  26,C   8)                  1.0890         0.361367   
     28. B(H  27,C   9)                  1.0885         0.362033   
     29. B(H  28,C  10)                  1.0990         0.348407   
     30. B(H  29,C  11)                  1.0960         0.352305   
     31. B(H  30,C  11)                  1.0956         0.352744   
     32. B(H  31,C  11)                  1.0951         0.353390   
     33. B(H  32,H  17)                  4.4833         0.000000   
     34. B(H  32,O  13)                  0.9772         0.488099   
     35. A(C   1,C   0,H  15)          110.5745         0.323345   
     36. A(H  15,C   0,H  17)          107.3459         0.289263   
     37. A(C   1,C   0,H  17)          111.4230         0.323536   
     38. A(H  16,C   0,H  17)          108.1463         0.289240   
     39. A(C   1,C   0,H  16)          111.2083         0.323317   
     40. A(H  15,C   0,H  16)          107.9861         0.289077   
     41. A(C   0,C   1,C   3)          112.0541         0.361002   
     42. A(C   2,C   1,H  18)          107.8438         0.322420   
     43. A(C   2,C   1,C   3)          109.7381         0.360327   
     44. A(C   3,C   1,H  18)          109.3781         0.320915   
     45. A(C   0,C   1,H  18)          108.2723         0.323001   
     46. A(C   0,C   1,C   2)          109.4516         0.362768   
     47. A(C   1,C   2,H  19)          111.2690         0.322615   
     48. A(H  20,C   2,H  21)          107.7675         0.289118   
     49. A(C   1,C   2,H  20)          110.8293         0.322747   
     50. A(H  19,C   2,H  21)          107.9457         0.289005   
     51. A(C   1,C   2,H  21)          111.0412         0.322800   
     52. A(H  19,C   2,H  20)          107.8388         0.288960   
     53. A(C   1,C   3,H  23)          109.4573         0.320606   
     54. A(C   4,C   3,H  22)          109.4556         0.326069   
     55. A(H  22,C   3,H  23)          105.5115         0.288042   
     56. A(C   1,C   3,C   4)          115.4737         0.364855   
     57. A(C   1,C   3,H  22)          109.0707         0.320673   
     58. A(C   4,C   3,H  23)          107.4019         0.326001   
     59. A(C   5,C   4,C   9)          118.5930         0.429674   
     60. A(C   3,C   4,C   5)          121.3826         0.399225   
     61. A(C   3,C   4,C   9)          119.9655         0.398986   
     62. A(C   4,C   5,C   6)          120.6244         0.429653   
     63. A(C   6,C   5,H  24)          119.0771         0.351479   
     64. A(C   4,C   5,H  24)          120.2710         0.351697   
     65. A(C   5,C   6,C   7)          120.8277         0.428482   
     66. A(C   7,C   6,H  25)          120.6516         0.350663   
     67. A(C   5,C   6,H  25)          118.4742         0.351348   
     68. A(C   8,C   7,C  10)          121.4987         0.394949   
     69. A(C   6,C   7,C  10)          120.1169         0.394853   
     70. A(C   6,C   7,C   8)          118.2947         0.427702   
     71. A(C   9,C   8,H  26)          118.4601         0.352049   
     72. A(C   7,C   8,C   9)          120.7477         0.429538   
     73. A(C   7,C   8,H  26)          120.7646         0.350713   
     74. A(C   4,C   9,C   8)          120.8525         0.430342   
     75. A(C   4,C   9,H  27)          120.2087         0.351441   
     76. A(C   8,C   9,H  27)          118.9133         0.352158   
     77. A(C   7,C  10,C  11)          109.7331         0.363265   
     78. A(C  12,C  10,H  28)          104.7238         0.323561   
     79. A(C  11,C  10,H  28)          107.6576         0.321679   
     80. A(C   7,C  10,H  28)          107.7185         0.323385   
     81. A(C  11,C  10,C  12)          109.3185         0.363471   
     82. A(C   7,C  10,C  12)          117.1975         0.365483   
     83. A(H  30,C  11,H  31)          107.8175         0.289045   
     84. A(H  29,C  11,H  31)          106.9472         0.288989   
     85. A(C  10,C  11,H  31)          111.3444         0.322428   
     86. A(H  29,C  11,H  30)          107.8274         0.288906   
     87. A(C  10,C  11,H  30)          110.9728         0.322331   
     88. A(C  10,C  11,H  29)          111.7290         0.322266   
     89. A(O  13,C  12,O  14)          120.3556         0.471926   
     90. A(C  10,C  12,O  14)          122.7757         0.431824   
     91. A(C  10,C  12,O  13)          116.8443         0.398056   
     92. A(C  12,O  13,H  32)          114.9672         0.368478   
     93. D(H  18,C   1,C   0,H  16)   -179.3553         0.011160   
     94. D(H  18,C   1,C   0,H  17)     59.9066         0.011160   
     95. D(C   2,C   1,C   0,H  16)    -62.0432         0.011160   
     96. D(C   3,C   1,C   0,H  15)    179.8926         0.011160   
     97. D(C   2,C   1,C   0,H  17)    177.2187         0.011160   
     98. D(C   2,C   1,C   0,H  15)     57.9199         0.011160   
     99. D(C   3,C   1,C   0,H  16)     59.9296         0.011160   
    100. D(C   3,C   1,C   0,H  17)    -60.8085         0.011160   
    101. D(H  18,C   1,C   0,H  15)    -59.3922         0.011160   
    102. D(H  19,C   2,C   1,C   3)    -62.3976         0.010932   
    103. D(H  19,C   2,C   1,H  18)    178.5356         0.010932   
    104. D(H  21,C   2,C   1,C   0)   -178.7802         0.010932   
    105. D(H  20,C   2,C   1,C   3)    177.6148         0.010932   
    106. D(H  20,C   2,C   1,H  18)     58.5480         0.010932   
    107. D(H  21,C   2,C   1,H  18)    -61.1992         0.010932   
    108. D(H  21,C   2,C   1,C   3)     57.8676         0.010932   
    109. D(H  19,C   2,C   1,C   0)     60.9546         0.010932   
    110. D(H  20,C   2,C   1,C   0)    -59.0330         0.010932   
    111. D(H  23,C   3,C   1,C   2)    -56.9063         0.010363   
    112. D(H  23,C   3,C   1,C   0)   -178.7151         0.010363   
    113. D(H  22,C   3,C   1,H  18)    176.1882         0.010363   
    114. D(H  22,C   3,C   1,C   2)     58.0694         0.010363   
    115. D(H  22,C   3,C   1,C   0)    -63.7394         0.010363   
    116. D(C   4,C   3,C   1,H  18)    -60.0963         0.010363   
    117. D(C   4,C   3,C   1,C   2)   -178.2151         0.010363   
    118. D(H  23,C   3,C   1,H  18)     61.2125         0.010363   
    119. D(C   4,C   3,C   1,C   0)     59.9760         0.010363   
    120. D(C   9,C   4,C   3,C   1)   -119.8860         0.011752   
    121. D(C   5,C   4,C   3,H  23)    -59.4644         0.011752   
    122. D(C   5,C   4,C   3,H  22)   -173.5402         0.011752   
    123. D(C   5,C   4,C   3,C   1)     62.9466         0.011752   
    124. D(C   9,C   4,C   3,H  23)    117.7030         0.011752   
    125. D(C   9,C   4,C   3,H  22)      3.6271         0.011752   
    126. D(H  24,C   5,C   4,C   9)   -179.5715         0.025144   
    127. D(H  24,C   5,C   4,C   3)     -2.3663         0.025144   
    128. D(C   6,C   5,C   4,C   9)     -1.4945         0.025144   
    129. D(C   6,C   5,C   4,C   3)    175.7107         0.025144   
    130. D(H  25,C   6,C   5,H  24)     -0.0864         0.024950   
    131. D(H  25,C   6,C   5,C   4)   -178.1861         0.024950   
    132. D(C   7,C   6,C   5,C   4)     -0.6516         0.024950   
    133. D(C   7,C   6,C   5,H  24)    177.4481         0.024950   
    134. D(C  10,C   7,C   6,H  25)      3.2432         0.024350   
    135. D(C  10,C   7,C   6,C   5)   -174.2375         0.024350   
    136. D(C   8,C   7,C   6,H  25)    179.8508         0.024350   
    137. D(C   8,C   7,C   6,C   5)      2.3701         0.024350   
    138. D(H  26,C   8,C   7,C  10)     -3.4671         0.024422   
    139. D(H  26,C   8,C   7,C   6)    179.9745         0.024422   
    140. D(C   9,C   8,C   7,C  10)    174.5909         0.024422   
    141. D(C   9,C   8,C   7,C   6)     -1.9675         0.024422   
    142. D(H  27,C   9,C   8,H  26)     -0.2276         0.025608   
    143. D(H  27,C   9,C   8,C   7)   -178.3295         0.025608   
    144. D(C   4,C   9,C   8,H  26)    177.9412         0.025608   
    145. D(C   4,C   9,C   8,C   7)     -0.1607         0.025608   
    146. D(H  27,C   9,C   4,C   5)   -179.9554         0.024964   
    147. D(H  27,C   9,C   4,C   3)      2.7986         0.024964   
    148. D(C   8,C   9,C   4,C   5)      1.8995         0.024964   
    149. D(C   8,C   9,C   4,C   3)   -175.3465         0.024964   
    150. D(H  28,C  10,C   7,C   6)      0.2821         0.010743   
    151. D(C  12,C  10,C   7,C   8)     66.1294         0.010743   
    152. D(C  12,C  10,C   7,C   6)   -117.3740         0.010743   
    153. D(C  11,C  10,C   7,C   8)    -59.2843         0.010743   
    154. D(H  28,C  10,C   7,C   8)   -176.2145         0.010743   
    155. D(C  11,C  10,C   7,C   6)    117.2123         0.010743   
    156. D(H  31,C  11,C  10,H  28)    -60.0043         0.010797   
    157. D(H  31,C  11,C  10,C   7)   -176.9727         0.010797   
    158. D(H  30,C  11,C  10,H  28)     60.1030         0.010797   
    159. D(H  30,C  11,C  10,C  12)    173.3210         0.010797   
    160. D(H  30,C  11,C  10,C   7)    -56.8655         0.010797   
    161. D(H  29,C  11,C  10,H  28)   -179.5180         0.010797   
    162. D(H  31,C  11,C  10,C  12)     53.2137         0.010797   
    163. D(H  29,C  11,C  10,C  12)    -66.3000         0.010797   
    164. D(H  29,C  11,C  10,C   7)     63.5136         0.010797   
    165. D(O  14,C  12,C  10,H  28)     67.7569         0.010810   
    166. D(O  14,C  12,C  10,C  11)    -47.3597         0.010810   
    167. D(O  14,C  12,C  10,C   7)   -172.9793         0.010810   
    168. D(O  13,C  12,C  10,H  28)   -110.4481         0.010810   
    169. D(O  13,C  12,C  10,C  11)    134.4353         0.010810   
    170. D(O  13,C  12,C  10,C   7)      8.8157         0.010810   
    171. D(H  32,O  13,C  12,O  14)   -178.1693         0.030568   
    172. D(H  32,O  13,C  12,C  10)      0.0817         0.030568   
    -----------------------------------------------------------------

Number of atoms                         .... 33
Number of degrees of freedom            .... 172

         *************************************************************
         *                GEOMETRY OPTIMIZATION CYCLE   1            *
         *************************************************************
---------------------------------
CARTESIAN COORDINATES (ANGSTROEM)
---------------------------------
  C      2.511580    1.947560    2.605730
  C      2.255360    0.961600    1.464470
  C      0.745240    0.811060    1.249360
  C      2.925800    1.409390    0.151720
  C      4.430340    1.557890    0.207170
  C      5.261670    0.462400    0.465900
  C      6.654760    0.598830    0.425510
  C      7.247910    1.831550    0.111930
  C      6.410470    2.935190   -0.110260
  C      5.021030    2.798760   -0.061280
  C      8.761020    1.932250   -0.056630
  C      9.095400    2.352160   -1.494270
  C      9.512720    2.831110    0.919230
  O      8.808910    3.320350    1.964680
  O     10.707390    3.086210    0.802130
  H      2.023430    1.607300    3.525190
  H      2.122500    2.942660    2.364540
  H      3.580500    2.042240    2.819680
  H      2.652010   -0.017450    1.760220
  H      0.285370    1.767470    0.975600
  H      0.255820    0.452230    2.161150
  H      0.531530    0.093070    0.450690
  H      2.476570    2.356520   -0.175730
  H      2.696140    0.685400   -0.641970
  H      4.831800   -0.516140    0.670970
  H      7.268130   -0.283200    0.602970
  H      6.827830    3.910670   -0.355750
  H      4.399270    3.668640   -0.265360
  H      9.182940    0.930390    0.104710
  H      8.710340    3.351990   -1.724900
  H      8.664170    1.651510   -2.217810
  H     10.177580    2.380880   -1.659650
  H      7.871630    3.045600    1.995660

----------------------------
CARTESIAN COORDINATES (A.U.)
----------------------------
  NO LB      ZA    FRAG     MASS         X           Y           Z
   0 C     6.0000    0    12.011    4.746198    3.680355    4.924116
   1 C     6.0000    0    12.011    4.262013    1.817161    2.767447
   2 C     6.0000    0    12.011    1.408300    1.532681    2.360948
   3 C     6.0000    0    12.011    5.528961    2.663361    0.286709
   4 C     6.0000    0    12.011    8.372129    2.943985    0.391495
   5 C     6.0000    0    12.011    9.943115    0.873809    0.880423
   6 C     6.0000    0    12.011   12.575674    1.131625    0.804097
   7 C     6.0000    0    12.011   13.696565    3.461128    0.211517
   8 C     6.0000    0    12.011   12.114033    5.546705   -0.208361
   9 C     6.0000    0    12.011    9.488372    5.288890   -0.115802
  10 C     6.0000    0    12.011   16.555928    3.651423   -0.107015
  11 C     6.0000    0    12.011   17.187815    4.444938   -2.823761
  12 C     6.0000    0    12.011   17.976436    5.350023    1.737093
  13 O     8.0000    0    15.999   16.646427    6.274552    3.712707
  14 O     8.0000    0    15.999   20.234035    5.832092    1.515806
  15 H     1.0000    0     1.008    3.823729    3.037357    6.661644
  16 H     1.0000    0     1.008    4.010944    5.560822    4.468333
  17 H     1.0000    0     1.008    6.766164    3.859274    5.328423
  18 H     1.0000    0     1.008    5.011573   -0.032976    3.326334
  19 H     1.0000    0     1.008    0.539271    3.340034    1.843617
  20 H     1.0000    0     1.008    0.483430    0.854591    4.083982
  21 H     1.0000    0     1.008    1.004446    0.175877    0.851681
  22 H     1.0000    0     1.008    4.680039    4.453177   -0.332082
  23 H     1.0000    0     1.008    5.094966    1.295218   -1.213147
  24 H     1.0000    0     1.008    9.130779   -0.975363    1.267950
  25 H     1.0000    0     1.008   13.734775   -0.535170    1.139448
  26 H     1.0000    0     1.008   12.902729    7.390095   -0.672270
  27 H     1.0000    0     1.008    8.313415    6.932725   -0.501458
  28 H     1.0000    0     1.008   17.353242    1.758182    0.197873
  29 H     1.0000    0     1.008   16.460157    6.334343   -3.259589
  30 H     1.0000    0     1.008   16.372908    3.120902   -4.191054
  31 H     1.0000    0     1.008   19.232839    4.499211   -3.136284
  32 H     1.0000    0     1.008   14.875225    5.755350    3.771251

--------------------------------
INTERNAL COORDINATES (ANGSTROEM)
--------------------------------
 C      0   0   0     0.000000000000     0.00000000     0.00000000
 C      1   0   0     1.529784363105     0.00000000     0.00000000
 C      2   1   0     1.532774288048   109.45155292     0.00000000
 C      2   1   3     1.540557769186   112.05409380   121.97278112
 C      4   2   1     1.512867331956   115.47368775    59.97600590
 C      5   4   2     1.399338815977   121.38258999    62.94664103
 C      6   5   4     1.400337189787   120.62444578   175.71073882
 C      7   6   5     1.403480650846   120.82767675   359.34838898
 C      8   7   6     1.403102063037   118.29467306     2.37012831
 C      9   8   7     1.396980922883   120.74765653   358.03252115
 C      8   7   6     1.525796459460   120.11685965   185.76251159
 C     11   8   7     1.534582406422   109.73306593   117.21234083
 C     11   8   7     1.524895055143   117.19747112   242.62596795
 O     13  11   8     1.351913457363   116.84426399     8.81571116
 O     13  11   8     1.227202032634   122.77565075   187.02072780
 H      1   2   3     1.095204995286   110.57447283    57.91986164
 H      1   2   3     1.095344636404   111.20826055   297.95677089
 H      1   2   3     1.094225237920   111.42295091   177.21868826
 H      2   1   3     1.096967724001   108.27225906   242.68790997
 H      3   2   1     1.095967628445   111.26904134    60.95457473
 H      3   2   1     1.095286222592   110.82932053   300.96696078
 H      3   2   1     1.095013868908   111.04124569   181.21975567
 H      4   2   1     1.098219619339   109.07072886   296.26056240
 H      4   2   1     1.098566817176   109.45731037   181.28487399
 H      6   5   4     1.088293367342   120.27098570   357.63372840
 H      7   6   5     1.088894728337   118.47415808   181.81392093
 H      9   8   7     1.089043589623   120.76458583   179.97452902
 H     10   9   8     1.088542768292   118.91334008   181.67054259
 H     11   8   7     1.098986142588   107.71854761     0.28213819
 H     12  11   8     1.095956855629   111.72903192    63.51357930
 H     12  11   8     1.095618486062   110.97282073   303.13453114
 H     12  11   8     1.095120511725   111.34440291   183.02729944
 H     14  13  11     0.977210888857   114.96715224     0.08168677

---------------------------
INTERNAL COORDINATES (A.U.)
---------------------------
 C      0   0   0     0.000000000000     0.00000000     0.00000000
 C      1   0   0     2.890873490223     0.00000000     0.00000000
 C      2   1   0     2.896523629526   109.45155292     0.00000000
 C      2   1   3     2.911232277247   112.05409380   121.97278112
 C      4   2   1     2.858904934353   115.47368775    59.97600590
 C      5   4   2     2.644367130762   121.38258999    62.94664103
 C      6   5   4     2.646253783842   120.62444578   175.71073882
 C      7   6   5     2.652194064357   120.82767675   359.34838898
 C      8   7   6     2.651478637081   118.29467306     2.37012831
 C      9   8   7     2.639911358562   120.74765653   358.03252115
 C      8   7   6     2.883337444486   120.11685965   185.76251159
 C     11   8   7     2.899940478071   109.73306593   117.21234083
 C     11   8   7     2.881634037191   117.19747112   242.62596795
 O     13  11   8     2.554746191179   116.84426399     8.81571116
 O     13  11   8     2.319075752669   122.77565075   187.02072780
 H      1   2   3     2.069637501594   110.57447283    57.91986164
 H      1   2   3     2.069901385064   111.20826055   297.95677089
 H      1   2   3     2.067786028493   111.42295091   177.21868826
 H      2   1   3     2.072968576113   108.27225906   242.68790997
 H      3   2   1     2.071078669405   111.26904134    60.95457473
 H      3   2   1     2.069790998956   110.82932053   300.96696078
 H      3   2   1     2.069276325081   111.04124569   181.21975567
 H      4   2   1     2.075334315449   109.07072886   296.26056240
 H      4   2   1     2.075990424276   109.45731037   181.28487399
 H      6   5   4     2.056576417639   120.27098570   357.63372840
 H      7   6   5     2.057712825227   118.47415808   181.81392093
 H      9   8   7     2.057994132291   120.76458583   179.97452902
 H     10   9   8     2.057047717132   118.91334008   181.67054259
 H     11   8   7     2.076782834465   107.71854761     0.28213819
 H     12  11   8     2.071058311732   111.72903192    63.51357930
 H     12  11   8     2.070418885918   110.97282073   303.13453114
 H     12  11   8     2.069477850799   111.34440291   183.02729944
 H     14  13  11     1.846660955025   114.96715224     0.08168677

---------------------
BASIS SET INFORMATION
---------------------
There are 3 groups of distinct atoms

 Group   1 Type C   : 12s6p1d contracted to 5s4p1d pattern {63111/3111/1}
 Group   2 Type O   : 12s6p1d contracted to 5s4p1d pattern {63111/3111/1}
 Group   3 Type H   : 5s1p contracted to 3s1p pattern {311/1}

Atom   0C    basis set group =>   1
Atom   1C    basis set group =>   1
Atom   2C    basis set group =>   1
Atom   3C    basis set group =>   1
Atom   4C    basis set group =>   1
Atom   5C    basis set group =>   1
Atom   6C    basis set group =>   1
Atom   7C    basis set group =>   1
Atom   8C    basis set group =>   1
Atom   9C    basis set group =>   1
Atom  10C    basis set group =>   1
Atom  11C    basis set group =>   1
Atom  12C    basis set group =>   1
Atom  13O    basis set group =>   2
Atom  14O    basis set group =>   2
Atom  15H    basis set group =>   3
Atom  16H    basis set group =>   3
Atom  17H    basis set group =>   3
Atom  18H    basis set group =>   3
Atom  19H    basis set group =>   3
Atom  20H    basis set group =>   3
Atom  21H    basis set group =>   3
Atom  22H    basis set group =>   3
Atom  23H    basis set group =>   3
Atom  24H    basis set group =>   3
Atom  25H    basis set group =>   3
Atom  26H    basis set group =>   3
Atom  27H    basis set group =>   3
Atom  28H    basis set group =>   3
Atom  29H    basis set group =>   3
Atom  30H    basis set group =>   3
Atom  31H    basis set group =>   3
Atom  32H    basis set group =>   3
---------------------------------
AUXILIARY/J BASIS SET INFORMATION
---------------------------------
There are 3 groups of distinct atoms

 Group   1 Type C   : 12s5p4d2f1g contracted to 6s4p3d1f1g pattern {711111/2111/211/2/1}
 Group   2 Type O   : 12s5p4d2f1g contracted to 6s4p3d1f1g pattern {711111/2111/211/2/1}
 Group   3 Type H   : 5s2p1d contracted to 3s1p1d pattern {311/2/1}

Atom   0C    basis set group =>   1
Atom   1C    basis set group =>   1
Atom   2C    basis set group =>   1
Atom   3C    basis set group =>   1
Atom   4C    basis set group =>   1
Atom   5C    basis set group =>   1
Atom   6C    basis set group =>   1
Atom   7C    basis set group =>   1
Atom   8C    basis set group =>   1
Atom   9C    basis set group =>   1
Atom  10C    basis set group =>   1
Atom  11C    basis set group =>   1
Atom  12C    basis set group =>   1
Atom  13O    basis set group =>   2
Atom  14O    basis set group =>   2
Atom  15H    basis set group =>   3
Atom  16H    basis set group =>   3
Atom  17H    basis set group =>   3
Atom  18H    basis set group =>   3
Atom  19H    basis set group =>   3
Atom  20H    basis set group =>   3
Atom  21H    basis set group =>   3
Atom  22H    basis set group =>   3
Atom  23H    basis set group =>   3
Atom  24H    basis set group =>   3
Atom  25H    basis set group =>   3
Atom  26H    basis set group =>   3
Atom  27H    basis set group =>   3
Atom  28H    basis set group =>   3
Atom  29H    basis set group =>   3
Atom  30H    basis set group =>   3
Atom  31H    basis set group =>   3
Atom  32H    basis set group =>   3
------------------------------------------------------------------------------
                           ORCA GTO INTEGRAL CALCULATION
                           -- RI-GTO INTEGRALS CHOSEN --
------------------------------------------------------------------------------
------------------------------------------------------------------------------
                   ___                                                        
                  /   \      - P O W E R E D   B Y -                         
                 /     \                                                     
                 |  |  |   _    _      __       _____    __    __             
                 |  |  |  | |  | |    /  \     |  _  \  |  |  /  |          
                  \  \/   | |  | |   /    \    | | | |  |  | /  /          
                 / \  \   | |__| |  /  /\  \   | |_| |  |  |/  /          
                |  |  |   |  __  | /  /__\  \  |    /   |      \           
                |  |  |   | |  | | |   __   |  |    \   |  |\   \          
                \     /   | |  | | |  |  |  |  | |\  \  |  | \   \       
                 \___/    |_|  |_| |__|  |__|  |_| \__\ |__|  \__/        
                                                                              
                      - O R C A' S   B I G   F R I E N D -                    
                                      &                                       
                       - I N T E G R A L  F E E D E R -                       
                                                                              
 v1 FN, 2020, v2 2021                                                         
------------------------------------------------------------------------------


Reading SHARK input file Ibuprofeno\Ibuprofeno_TPSS_6-311+G\Ibuprofeno_TPSS_6-311+G.orcainp.SHARKINP.tmp ... ok
----------------------
SHARK INTEGRAL PACKAGE
----------------------

Number of atoms                             ...     33
Number of basis functions                   ...    438
Number of shells                            ...    222
Maximum angular momentum                    ...      2
Integral batch strategy                     ... SHARK/LIBINT Hybrid
RI-J (if used) integral strategy            ... SPLIT-RIJ (Revised 2003 algorithm where possible)
Printlevel                                  ...      1
Contraction scheme used                     ... SEGMENTED contraction
Coulomb Range Separation                    ... NOT USED
Exchange Range Separation                   ... NOT USED
Finite Nucleus Model                        ... NOT USED
Auxiliary Coulomb fitting basis             ... AVAILABLE
   # of basis functions in Aux-J            ...    933
   # of shells in Aux-J                     ...    315
   Maximum angular momentum in Aux-J        ...      4
Auxiliary J/K fitting basis                 ... NOT available
Auxiliary Correlation fitting basis         ... NOT available
Auxiliary 'external' fitting basis          ... NOT available
Integral threshold                          ...     2.500000e-11
Primitive cut-off                           ...     2.500000e-12
Primitive pair pre-selection threshold      ...     2.500000e-12

Calculating pre-screening integrals         ... done (  0.0 sec) Dimension = 222
Organizing shell pair data                  ... done (  0.1 sec)
Shell pair information
Total number of shell pairs                 ...     24753
Shell pairs after pre-screening             ...     19577
Total number of primitive shell pairs       ...     77790
Primitive shell pairs kept                  ...     42551
          la=0 lb=0:   6531 shell pairs
          la=1 lb=0:   8054 shell pairs
          la=1 lb=1:   2535 shell pairs
          la=2 lb=0:   1457 shell pairs
          la=2 lb=1:    909 shell pairs
          la=2 lb=2:     91 shell pairs

Calculating one electron integrals          ... done (  0.0 sec)
Calculating RI/J V-Matrix + Cholesky decomp.... done (  0.0 sec)
Calculating Nuclear repulsion               ... done (  0.0 sec) ENN=    964.722981796854 Eh

SHARK setup successfully completed in   0.2 seconds

Maximum memory used throughout the entire GTOINT-calculation: 87.1 MB
-------------------------------------------------------------------------------
                                 ORCA SCF
-------------------------------------------------------------------------------

------------
SCF SETTINGS
------------
Hamiltonian:
 Density Functional     Method          .... DFT(GTOs)
 Exchange Functional    Exchange        .... TPSS
 Correlation Functional Correlation     .... TPSS
 LDA part of GGA corr.  LDAOpt          .... PW91-LDA
 Gradients option       PostSCFGGA      .... off
   Density functional embedding theory  .... OFF
   NL short-range parameter             ....  5.000000
 RI-approximation to the Coulomb term is turned on
   Number of AuxJ basis functions       .... 933


General Settings:
 Integral files         IntName         .... Ibuprofeno\Ibuprofeno_TPSS_6-311+G\Ibuprofeno_TPSS_6-311+G.orcainp
 Hartree-Fock type      HFTyp           .... RHF
 Total Charge           Charge          ....    0
 Multiplicity           Mult            ....    1
 Number of Electrons    NEL             ....  112
 Basis Dimension        Dim             ....  438
 Nuclear Repulsion      ENuc            ....    964.7229817969 Eh

Convergence Acceleration:
 DIIS                   CNVDIIS         .... on
   Start iteration      DIISMaxIt       ....    12
   Startup error        DIISStart       ....  0.200000
   # of expansion vecs  DIISMaxEq       ....     5
   Bias factor          DIISBfac        ....   1.050
   Max. coefficient     DIISMaxC        ....  10.000
 Trust-Rad. Augm. Hess. CNVTRAH         .... auto
   Auto Start mean grad. ratio tolernc. ....  1.125000
   Auto Start start iteration           ....    20
   Auto Start num. interpolation iter.  ....    10
   Max. Number of Micro iterations      ....    16
   Max. Number of Macro iterations      .... Maxiter - #DIIS iter
   Number of Davidson start vectors     ....     2
   Converg. threshold I  (grad. norm)   ....   1.000e-05
   Converg. threshold II (energy diff.) ....   1.000e-08
   Grad. Scal. Fac. for Micro threshold ....   0.100
   Minimum threshold for Micro iter.    ....   0.010
   NR start threshold (gradient norm)   ....   0.001
   Initial trust radius                 ....   0.400
   Minimum AH scaling param. (alpha)    ....   1.000
   Maximum AH scaling param. (alpha)    .... 1000.000
   Orbital update algorithm             .... Taylor
   White noise on init. David. guess    .... on
   Maximum white noise                  ....   0.010
   Quad. conv. algorithm                .... NR
 SOSCF                  CNVSOSCF        .... on
   Start iteration      SOSCFMaxIt      ....   150
   Startup grad/error   SOSCFStart      ....  0.003300
 Level Shifting         CNVShift        .... on
   Level shift para.    LevelShift      ....    0.2500
   Turn off err/grad.   ShiftErr        ....    0.0010
 Zerner damping         CNVZerner       .... off
 Static damping         CNVDamp         .... on
   Fraction old density DampFac         ....    0.7000
   Max. Damping (<1)    DampMax         ....    0.9800
   Min. Damping (>=0)   DampMin         ....    0.0000
   Turn off err/grad.   DampErr         ....    0.1000
 Fernandez-Rico         CNVRico         .... off

SCF Procedure:
 Maximum # iterations   MaxIter         ....   125
 SCF integral mode      SCFMode         .... Direct
   Integral package                     .... SHARK and LIBINT hybrid scheme
 Reset frequency        DirectResetFreq ....    20
 Integral Threshold     Thresh          ....  2.500e-11 Eh
 Primitive CutOff       TCut            ....  2.500e-12 Eh

Convergence Tolerance:
 Convergence Check Mode ConvCheckMode   .... Total+1el-Energy
 Convergence forced     ConvForced      .... 0
 Energy Change          TolE            ....  1.000e-08 Eh
 1-El. energy change                    ....  1.000e-05 Eh
 Orbital Gradient       TolG            ....  1.000e-05
 Orbital Rotation angle TolX            ....  1.000e-05
 DIIS Error             TolErr          ....  5.000e-07


Diagonalization of the overlap matrix:
Smallest eigenvalue                        ... 7.920e-07
Time for diagonalization                   ...    0.010 sec
Threshold for overlap eigenvalues          ... 1.000e-08
Number of eigenvalues below threshold      ... 0
Time for construction of square roots      ...    0.007 sec
Total time needed                          ...    0.017 sec

Time for model grid setup =    0.333 sec

------------------------------
INITIAL GUESS: MODEL POTENTIAL
------------------------------
Loading Hartree-Fock densities                     ... done
Calculating cut-offs                               ... done
Initializing the effective Hamiltonian             ... done
Setting up the integral package (SHARK)            ... done
Starting the Coulomb interaction                   ... done (   0.5 sec)
Reading the grid                                   ... done
Mapping shells                                     ... done
Starting the XC term evaluation                    ... done (   0.5 sec)
  promolecular density results
     # of electrons  =    111.999527276
     EX              =    -88.092615202
     EC              =     -3.712940768
     EX+EC           =    -91.805555970
Transforming the Hamiltonian                       ... done (   0.0 sec)
Diagonalizing the Hamiltonian                      ... done (   0.0 sec)
Back transforming the eigenvectors                 ... done (   0.0 sec)
Now organizing SCF variables                       ... done
                      ------------------
                      INITIAL GUESS DONE (   1.3 sec)
                      ------------------
-------------------
DFT GRID GENERATION
-------------------

General Integration Accuracy     IntAcc      ... 4.388
Radial Grid Type                 RadialGrid  ... OptM3 with GC (2021)
Angular Grid (max. ang.)         AngularGrid ... 4 (Lebedev-302)
Angular grid pruning method      GridPruning ... 4 (adaptive)
Weight generation scheme         WeightScheme... Becke
Basis function cutoff            BFCut       ... 1.0000e-11
Integration weight cutoff        WCut        ... 1.0000e-14
Angular grids for H and He will be reduced by one unit
Partially contracted basis set               ... off
Rotationally invariant grid construction     ... off

Total number of grid points                  ...   150617
Total number of batches                      ...     2369
Average number of points per batch           ...       63
Average number of grid points per atom       ...     4564
Time for grid setup =    1.155 sec


--------------------
CPCM SOLVATION MODEL
--------------------
CPCM parameters:
  Epsilon                                         ...      80.4000
  Refrac                                          ...       1.3300
  Rsolv                                           ...       1.3000
  Surface type                                    ... GAUSSIAN VDW
  Epsilon function type                           ...         CPCM
Radii:
 Radius for C  used is    3.8550 Bohr (=   2.0400 Ang.)
 Radius for O  used is    3.4469 Bohr (=   1.8240 Ang.)
 Radius for H  used is    2.4944 Bohr (=   1.3200 Ang.)
Calculating surface                               ...        done! (  0.0s)
GEPOL surface points                              ...         1794
GEPOL Volume                                      ...    1837.4322
GEPOL Surface-area                                ...     981.7946
Calculating surface distance matrix               ...        done! (  0.0s)
Performing Cholesky decomposition & store         ...        done! (  0.0s)
Overall time for CPCM initialization              ...                 0.1s
--------------
SCF ITERATIONS
--------------
ITER       Energy         Delta-E        Max-DP      RMS-DP      [F,P]     Damp
               ***  Starting incremental Fock matrix formation  ***
  0   -656.5780100346   0.000000000000 2.32157079  0.01196924  0.2892560 0.7000
  1   -656.7826755746  -0.204665540046 0.88710794  0.00666149  0.0918672 0.7000
                               ***Turning on DIIS***
  2   -656.8536779164  -0.071002341800 1.12358400  0.01023980  0.0272874 0.0000
  3   -656.9631648007  -0.109486884218 0.84057614  0.00627282  0.0567636 0.0000
  4   -656.9929592352  -0.029794434581 0.57141866  0.00301823  0.0271379 0.0000
  5   -656.9955526392  -0.002593403964 0.10718335  0.00065902  0.0110377 0.0000
                      *** Initiating the SOSCF procedure ***
                           *** Shutting down DIIS ***
                      *** Re-Reading the Fockian *** 
                      *** Removing any level shift *** 
ITER      Energy       Delta-E        Grad      Rot      Max-DP    RMS-DP
  6   -656.99574940  -0.0001967644  0.000321  0.000321  0.079701  0.000518
               *** Restarting incremental Fock matrix formation ***
  7   -656.99576358  -0.0000141740  0.000243  0.001004  0.114264  0.000862
  8   -656.99575630   0.0000072745  0.000681  0.000890  0.080481  0.000521
  9   -656.99576704  -0.0000107322  0.000112  0.000292  0.095413  0.000749
 10   -656.99576610   0.0000009313  0.000155  0.000172  0.083962  0.000397
 11   -656.99576737  -0.0000012704  0.000023  0.000084  0.121564  0.000718
 12   -656.99576731   0.0000000647  0.000033  0.000068  0.023254  0.000145
 13   -656.99576740  -0.0000000938  0.000008  0.000034  0.095560  0.000732
 14   -656.99576739   0.0000000094  0.000014  0.000022  0.037519  0.000324
                  ***Gradient check signals convergence***
              ***Rediagonalizing the Fockian in SOSCF/NRSCF***

               *****************************************************
               *                     SUCCESS                       *
               *           SCF CONVERGED AFTER  15 CYCLES          *
               *****************************************************


----------------
TOTAL SCF ENERGY
----------------

Total Energy       :         -656.99576741 Eh          -17877.76372 eV

Components:
Nuclear Repulsion  :          964.72298180 Eh           26251.44693 eV
Electronic Energy  :        -1621.71874921 Eh          -44129.21065 eV
One Electron Energy:        -2803.68180859 Eh          -76292.06063 eV
Two Electron Energy:         1181.96305938 Eh           32162.84997 eV
CPCM Dielectric    :           -0.01963644 Eh              -0.53433 eV

Virial components:
Potential Energy   :        -1311.30046864 Eh          -35682.29980 eV
Kinetic Energy     :          654.30470123 Eh           17804.53609 eV
Virial Ratio       :            2.00411286


DFT components:
N(Alpha)           :       56.000041514260 electrons
N(Beta)            :       56.000041514260 electrons
N(Total)           :      112.000083028519 electrons
E(X)               :      -91.011397151700 Eh       
E(C)               :       -3.715691197074 Eh       
E(XC)              :      -94.727088348774 Eh       
DFET-embed. en.    :        0.000000000000 Eh       
CPCM Solvation Model Properties:
Surface-charge          :           -0.03510124
Charge-correction       :           -0.00001459 Eh              -0.00040 eV
Free-energy (cav+disp)  :  This term is not implemented in the current solvation scheme

---------------
SCF CONVERGENCE
---------------

  Last Energy change         ...   -1.9093e-08  Tolerance :   1.0000e-08
  Last MAX-Density change    ...    1.2058e-01  Tolerance :   1.0000e-07
  Last RMS-Density change    ...    9.3519e-04  Tolerance :   5.0000e-09
  Last Orbital Gradient      ...    2.2287e-06  Tolerance :   1.0000e-05
  Last Orbital Rotation      ...    5.0746e-06  Tolerance :   1.0000e-05

             **** THE GBW FILE WAS UPDATED (Ibuprofeno\Ibuprofeno_TPSS_6-311+G\Ibuprofeno_TPSS_6-311+G.orcainp.gbw) ****
             **** DENSITY Ibuprofeno\Ibuprofeno_TPSS_6-311+G\Ibuprofeno_TPSS_6-311+G.orcainp.scfp WAS UPDATED ****
             **** ENERGY FILE WAS UPDATED (Ibuprofeno\Ibuprofeno_TPSS_6-311+G\Ibuprofeno_TPSS_6-311+G.orcainp.en.tmp) ****
             **** THE GBW FILE WAS UPDATED (Ibuprofeno\Ibuprofeno_TPSS_6-311+G\Ibuprofeno_TPSS_6-311+G.orcainp.gbw) ****
             **** DENSITY Ibuprofeno\Ibuprofeno_TPSS_6-311+G\Ibuprofeno_TPSS_6-311+G.orcainp.scfp WAS UPDATED ****
----------------
ORBITAL ENERGIES
----------------

  NO   OCC          E(Eh)            E(eV) 
   0   2.0000     -18.934500      -515.2339 
   1   2.0000     -18.880241      -513.7575 
   2   2.0000     -10.125272      -275.5227 
   3   2.0000     -10.016404      -272.5602 
   4   2.0000     -10.003370      -272.2055 
   5   2.0000      -9.996095      -272.0076 
   6   2.0000      -9.993507      -271.9372 
   7   2.0000      -9.993333      -271.9324 
   8   2.0000      -9.989221      -271.8205 
   9   2.0000      -9.989081      -271.8167 
  10   2.0000      -9.985411      -271.7168 
  11   2.0000      -9.982744      -271.6443 
  12   2.0000      -9.981458      -271.6093 
  13   2.0000      -9.967492      -271.2292 
  14   2.0000      -9.966583      -271.2045 
  15   2.0000      -1.038482       -28.2585 
  16   2.0000      -0.959250       -26.1025 
  17   2.0000      -0.807951       -21.9855 
  18   2.0000      -0.761573       -20.7235 
  19   2.0000      -0.737666       -20.0729 
  20   2.0000      -0.694385       -18.8952 
  21   2.0000      -0.688673       -18.7398 
  22   2.0000      -0.628379       -17.0991 
  23   2.0000      -0.624940       -17.0055 
  24   2.0000      -0.608429       -16.5562 
  25   2.0000      -0.573523       -15.6063 
  26   2.0000      -0.564207       -15.3529 
  27   2.0000      -0.539767       -14.6878 
  28   2.0000      -0.510164       -13.8823 
  29   2.0000      -0.484283       -13.1780 
  30   2.0000      -0.455751       -12.4016 
  31   2.0000      -0.434099       -11.8124 
  32   2.0000      -0.419692       -11.4204 
  33   2.0000      -0.414862       -11.2890 
  34   2.0000      -0.409902       -11.1540 
  35   2.0000      -0.405740       -11.0408 
  36   2.0000      -0.392390       -10.6775 
  37   2.0000      -0.388545       -10.5728 
  38   2.0000      -0.380100       -10.3430 
  39   2.0000      -0.370032       -10.0691 
  40   2.0000      -0.362960        -9.8767 
  41   2.0000      -0.349074        -9.4988 
  42   2.0000      -0.341105        -9.2820 
  43   2.0000      -0.333043        -9.0625 
  44   2.0000      -0.328694        -8.9442 
  45   2.0000      -0.326918        -8.8959 
  46   2.0000      -0.318577        -8.6689 
  47   2.0000      -0.305537        -8.3141 
  48   2.0000      -0.302940        -8.2434 
  49   2.0000      -0.293326        -7.9818 
  50   2.0000      -0.289741        -7.8843 
  51   2.0000      -0.286171        -7.7871 
  52   2.0000      -0.279316        -7.6006 
  53   2.0000      -0.252070        -6.8592 
  54   2.0000      -0.234456        -6.3799 
  55   2.0000      -0.218873        -5.9558 
  56   0.0000      -0.047739        -1.2990 
  57   0.0000      -0.044432        -1.2090 
  58   0.0000      -0.039133        -1.0649 
  59   0.0000      -0.006969        -0.1896 
  60   0.0000       0.006861         0.1867 
  61   0.0000       0.013600         0.3701 
  62   0.0000       0.016767         0.4562 
  63   0.0000       0.022443         0.6107 
  64   0.0000       0.028062         0.7636 
  65   0.0000       0.029645         0.8067 
  66   0.0000       0.032645         0.8883 
  67   0.0000       0.041834         1.1383 
  68   0.0000       0.052410         1.4262 
  69   0.0000       0.054376         1.4796 
  70   0.0000       0.055763         1.5174 
  71   0.0000       0.060474         1.6456 
  72   0.0000       0.065918         1.7937 
  73   0.0000       0.068901         1.8749 
  74   0.0000       0.072006         1.9594 
  75   0.0000       0.075712         2.0602 
  76   0.0000       0.083355         2.2682 
  77   0.0000       0.090725         2.4688 
  78   0.0000       0.095094         2.5877 
  79   0.0000       0.096823         2.6347 
  80   0.0000       0.098632         2.6839 
  81   0.0000       0.100101         2.7239 
  82   0.0000       0.101739         2.7684 
  83   0.0000       0.107749         2.9320 
  84   0.0000       0.110333         3.0023 
  85   0.0000       0.115440         3.1413 
  86   0.0000       0.120873         3.2891 
  87   0.0000       0.125973         3.4279 
  88   0.0000       0.129154         3.5145 
  89   0.0000       0.134576         3.6620 
  90   0.0000       0.137664         3.7460 
  91   0.0000       0.139984         3.8092 
  92   0.0000       0.143108         3.8942 
  93   0.0000       0.154659         4.2085 
  94   0.0000       0.156850         4.2681 
  95   0.0000       0.163297         4.4435 
  96   0.0000       0.165631         4.5070 
  97   0.0000       0.171250         4.6600 
  98   0.0000       0.173028         4.7083 
  99   0.0000       0.177212         4.8222 
 100   0.0000       0.180295         4.9061 
 101   0.0000       0.188458         5.1282 
 102   0.0000       0.189113         5.1460 
 103   0.0000       0.193858         5.2751 
 104   0.0000       0.195984         5.3330 
 105   0.0000       0.198700         5.4069 
 106   0.0000       0.203619         5.5408 
 107   0.0000       0.205427         5.5900 
 108   0.0000       0.206467         5.6182 
 109   0.0000       0.210448         5.7266 
 110   0.0000       0.211928         5.7668 
 111   0.0000       0.215371         5.8605 
 112   0.0000       0.218394         5.9428 
 113   0.0000       0.223095         6.0707 
 114   0.0000       0.229026         6.2321 
 115   0.0000       0.231375         6.2960 
 116   0.0000       0.234722         6.3871 
 117   0.0000       0.238730         6.4962 
 118   0.0000       0.247374         6.7314 
 119   0.0000       0.248775         6.7695 
 120   0.0000       0.249251         6.7825 
 121   0.0000       0.255958         6.9650 
 122   0.0000       0.257468         7.0061 
 123   0.0000       0.260323         7.0837 
 124   0.0000       0.262557         7.1446 
 125   0.0000       0.267028         7.2662 
 126   0.0000       0.274980         7.4826 
 127   0.0000       0.277055         7.5390 
 128   0.0000       0.278765         7.5856 
 129   0.0000       0.280502         7.6328 
 130   0.0000       0.285059         7.7568 
 131   0.0000       0.291092         7.9210 
 132   0.0000       0.291544         7.9333 
 133   0.0000       0.295007         8.0276 
 134   0.0000       0.297350         8.0913 
 135   0.0000       0.307193         8.3592 
 136   0.0000       0.317945         8.6517 
 137   0.0000       0.320570         8.7231 
 138   0.0000       0.323053         8.7907 
 139   0.0000       0.331975         9.0335 
 140   0.0000       0.336685         9.1617 
 141   0.0000       0.344409         9.3719 
 142   0.0000       0.348777         9.4907 
 143   0.0000       0.361006         9.8235 
 144   0.0000       0.365317         9.9408 
 145   0.0000       0.370046        10.0695 
 146   0.0000       0.371127        10.0989 
 147   0.0000       0.381572        10.3831 
 148   0.0000       0.404086        10.9957 
 149   0.0000       0.404776        11.0145 
 150   0.0000       0.419085        11.4039 
 151   0.0000       0.433244        11.7892 
 152   0.0000       0.439671        11.9641 
 153   0.0000       0.445701        12.1281 
 154   0.0000       0.456584        12.4243 
 155   0.0000       0.474414        12.9095 
 156   0.0000       0.487381        13.2623 
 157   0.0000       0.488654        13.2970 
 158   0.0000       0.492467        13.4007 
 159   0.0000       0.507197        13.8015 
 160   0.0000       0.514012        13.9870 
 161   0.0000       0.515958        14.0399 
 162   0.0000       0.519854        14.1459 
 163   0.0000       0.536042        14.5864 
 164   0.0000       0.540906        14.7188 
 165   0.0000       0.556480        15.1426 
 166   0.0000       0.561526        15.2799 
 167   0.0000       0.567156        15.4331 
 168   0.0000       0.574334        15.6284 
 169   0.0000       0.578445        15.7403 
 170   0.0000       0.580938        15.8081 
 171   0.0000       0.595760        16.2115 
 172   0.0000       0.600485        16.3400 
 173   0.0000       0.610398        16.6098 
 174   0.0000       0.614936        16.7333 
 175   0.0000       0.622652        16.9432 
 176   0.0000       0.626181        17.0393 
 177   0.0000       0.637960        17.3598 
 178   0.0000       0.642053        17.4712 
 179   0.0000       0.651879        17.7385 
 180   0.0000       0.656532        17.8651 
 181   0.0000       0.662503        18.0276 
 182   0.0000       0.667147        18.1540 
 183   0.0000       0.670913        18.2565 
 184   0.0000       0.673397        18.3241 
 185   0.0000       0.682454        18.5705 
 186   0.0000       0.687013        18.6946 
 187   0.0000       0.691033        18.8040 
 188   0.0000       0.693177        18.8623 
 189   0.0000       0.697183        18.9713 
 190   0.0000       0.703421        19.1411 
 191   0.0000       0.713090        19.4042 
 192   0.0000       0.720278        19.5998 
 193   0.0000       0.723353        19.6834 
 194   0.0000       0.730192        19.8695 
 195   0.0000       0.737368        20.0648 
 196   0.0000       0.744995        20.2723 
 197   0.0000       0.747836        20.3496 
 198   0.0000       0.757222        20.6051 
 199   0.0000       0.761817        20.7301 
 200   0.0000       0.772482        21.0203 
 201   0.0000       0.780643        21.2424 
 202   0.0000       0.787995        21.4424 
 203   0.0000       0.799122        21.7452 
 204   0.0000       0.805691        21.9240 
 205   0.0000       0.840298        22.8657 
 206   0.0000       0.848017        23.0757 
 207   0.0000       0.858180        23.3523 
 208   0.0000       0.860593        23.4179 
 209   0.0000       0.883745        24.0479 
 210   0.0000       0.899737        24.4831 
 211   0.0000       0.915083        24.9007 
 212   0.0000       0.922789        25.1104 
 213   0.0000       0.944920        25.7126 
 214   0.0000       0.949318        25.8322 
 215   0.0000       0.980823        26.6896 
 216   0.0000       0.995039        27.0764 
 217   0.0000       0.997176        27.1345 
 218   0.0000       1.005481        27.3605 
 219   0.0000       1.019310        27.7368 
 220   0.0000       1.033761        28.1301 
 221   0.0000       1.042313        28.3628 
 222   0.0000       1.056413        28.7465 
 223   0.0000       1.060925        28.8692 
 224   0.0000       1.074841        29.2479 
 225   0.0000       1.092835        29.7376 
 226   0.0000       1.098546        29.8930 
 227   0.0000       1.112850        30.2822 
 228   0.0000       1.120138        30.4805 
 229   0.0000       1.144242        31.1364 
 230   0.0000       1.146443        31.1963 
 231   0.0000       1.169025        31.8108 
 232   0.0000       1.170274        31.8448 
 233   0.0000       1.186819        32.2950 
 234   0.0000       1.192101        32.4387 
 235   0.0000       1.218500        33.1571 
 236   0.0000       1.228647        33.4332 
 237   0.0000       1.247127        33.9360 
 238   0.0000       1.265950        34.4482 
 239   0.0000       1.280850        34.8537 
 240   0.0000       1.314211        35.7615 
 241   0.0000       1.321906        35.9709 
 242   0.0000       1.359254        36.9872 
 243   0.0000       1.376608        37.4594 
 244   0.0000       1.404772        38.2258 
 245   0.0000       1.440882        39.2084 
 246   0.0000       1.444057        39.2948 
 247   0.0000       1.453946        39.5639 
 248   0.0000       1.454393        39.5760 
 249   0.0000       1.466002        39.8920 
 250   0.0000       1.475025        40.1375 
 251   0.0000       1.485925        40.4341 
 252   0.0000       1.492227        40.6056 
 253   0.0000       1.497452        40.7477 
 254   0.0000       1.508607        41.0513 
 255   0.0000       1.515028        41.2260 
 256   0.0000       1.523099        41.4456 
 257   0.0000       1.528561        41.5942 
 258   0.0000       1.535046        41.7707 
 259   0.0000       1.541703        41.9519 
 260   0.0000       1.543473        42.0000 
 261   0.0000       1.556671        42.3592 
 262   0.0000       1.563706        42.5506 
 263   0.0000       1.579650        42.9845 
 264   0.0000       1.585559        43.1453 
 265   0.0000       1.594930        43.4002 
 266   0.0000       1.599394        43.5217 
 267   0.0000       1.601736        43.5855 
 268   0.0000       1.623483        44.1772 
 269   0.0000       1.628914        44.3250 
 270   0.0000       1.632422        44.4205 
 271   0.0000       1.647063        44.8189 
 272   0.0000       1.662782        45.2466 
 273   0.0000       1.670904        45.4676 
 274   0.0000       1.682460        45.7821 
 275   0.0000       1.692377        46.0519 
 276   0.0000       1.709829        46.5268 
 277   0.0000       1.714857        46.6636 
 278   0.0000       1.718905        46.7738 
 279   0.0000       1.726533        46.9813 
 280   0.0000       1.741494        47.3885 
 281   0.0000       1.762885        47.9705 
 282   0.0000       1.764970        48.0273 
 283   0.0000       1.772263        48.2257 
 284   0.0000       1.783744        48.5381 
 285   0.0000       1.793129        48.7935 
 286   0.0000       1.796134        48.8753 
 287   0.0000       1.805018        49.1170 
 288   0.0000       1.808348        49.2077 
 289   0.0000       1.831940        49.8496 
 290   0.0000       1.846776        50.2533 
 291   0.0000       1.863634        50.7121 
 292   0.0000       1.869924        50.8832 
 293   0.0000       1.890866        51.4531 
 294   0.0000       1.901942        51.7545 
 295   0.0000       1.912366        52.0381 
 296   0.0000       1.934010        52.6271 
 297   0.0000       1.938209        52.7413 
 298   0.0000       1.953654        53.1616 
 299   0.0000       1.980811        53.9006 
 300   0.0000       1.985742        54.0348 
 301   0.0000       1.996972        54.3404 
 302   0.0000       2.011230        54.7284 
 303   0.0000       2.036409        55.4135 
 304   0.0000       2.049397        55.7669 
 305   0.0000       2.058892        56.0253 
 306   0.0000       2.076571        56.5064 
 307   0.0000       2.084474        56.7214 
 308   0.0000       2.109134        57.3925 
 309   0.0000       2.118777        57.6548 
 310   0.0000       2.126907        57.8761 
 311   0.0000       2.140789        58.2538 
 312   0.0000       2.161441        58.8158 
 313   0.0000       2.176325        59.2208 
 314   0.0000       2.184751        59.4501 
 315   0.0000       2.197236        59.7898 
 316   0.0000       2.225385        60.5558 
 317   0.0000       2.230036        60.6824 
 318   0.0000       2.280649        62.0596 
 319   0.0000       2.309268        62.8384 
 320   0.0000       2.314925        62.9923 
 321   0.0000       2.341267        63.7091 
 322   0.0000       2.349160        63.9239 
 323   0.0000       2.365111        64.3579 
 324   0.0000       2.384607        64.8885 
 325   0.0000       2.387453        64.9659 
 326   0.0000       2.408360        65.5348 
 327   0.0000       2.422238        65.9124 
 328   0.0000       2.424854        65.9836 
 329   0.0000       2.456711        66.8505 
 330   0.0000       2.484871        67.6168 
 331   0.0000       2.487311        67.6832 
 332   0.0000       2.489272        67.7365 
 333   0.0000       2.520107        68.5756 
 334   0.0000       2.525603        68.7251 
 335   0.0000       2.530051        68.8462 
 336   0.0000       2.543860        69.2220 
 337   0.0000       2.552335        69.4526 
 338   0.0000       2.560306        69.6695 
 339   0.0000       2.590744        70.4977 
 340   0.0000       2.603793        70.8528 
 341   0.0000       2.623374        71.3856 
 342   0.0000       2.633317        71.6562 
 343   0.0000       2.639126        71.8143 
 344   0.0000       2.649580        72.0987 
 345   0.0000       2.663517        72.4780 
 346   0.0000       2.683207        73.0138 
 347   0.0000       2.708102        73.6912 
 348   0.0000       2.711250        73.7769 
 349   0.0000       2.722955        74.0954 
 350   0.0000       2.730616        74.3038 
 351   0.0000       2.742078        74.6157 
 352   0.0000       2.752067        74.8875 
 353   0.0000       2.769859        75.3717 
 354   0.0000       2.778796        75.6149 
 355   0.0000       2.780774        75.6687 
 356   0.0000       2.785706        75.8029 
 357   0.0000       2.798297        76.1455 
 358   0.0000       2.820671        76.7544 
 359   0.0000       2.832900        77.0871 
 360   0.0000       2.846406        77.4547 
 361   0.0000       2.853550        77.6491 
 362   0.0000       2.869959        78.0956 
 363   0.0000       2.877932        78.3125 
 364   0.0000       2.891913        78.6929 
 365   0.0000       2.902946        78.9932 
 366   0.0000       2.910930        79.2104 
 367   0.0000       2.913496        79.2803 
 368   0.0000       2.926728        79.6403 
 369   0.0000       2.937958        79.9459 
 370   0.0000       2.958948        80.5171 
 371   0.0000       2.967209        80.7419 
 372   0.0000       2.983276        81.1791 
 373   0.0000       2.991243        81.3959 
 374   0.0000       3.003176        81.7206 
 375   0.0000       3.037615        82.6577 
 376   0.0000       3.057480        83.1983 
 377   0.0000       3.079471        83.7967 
 378   0.0000       3.104885        84.4882 
 379   0.0000       3.130361        85.1815 
 380   0.0000       3.157701        85.9254 
 381   0.0000       3.194575        86.9288 
 382   0.0000       3.212732        87.4229 
 383   0.0000       3.237380        88.0936 
 384   0.0000       3.259305        88.6902 
 385   0.0000       3.286027        89.4174 
 386   0.0000       3.305361        89.9434 
 387   0.0000       3.346267        91.0565 
 388   0.0000       3.387506        92.1787 
 389   0.0000       3.424847        93.1948 
 390   0.0000       3.465278        94.2950 
 391   0.0000       3.482966        94.7763 
 392   0.0000       3.490770        94.9887 
 393   0.0000       3.586625        97.5970 
 394   0.0000       3.625070        98.6432 
 395   0.0000       3.651361        99.3586 
 396   0.0000       3.714881       101.0871 
 397   0.0000       3.808428       103.6326 
 398   0.0000       3.814433       103.7960 
 399   0.0000       3.822700       104.0210 
 400   0.0000       3.828409       104.1763 
 401   0.0000       3.834466       104.3411 
 402   0.0000       3.856006       104.9272 
 403   0.0000       3.864929       105.1701 
 404   0.0000       3.887470       105.7834 
 405   0.0000       3.998246       108.7978 
 406   0.0000       4.018946       109.3611 
 407   0.0000       4.034297       109.7788 
 408   0.0000       4.054593       110.3311 
 409   0.0000       4.154801       113.0579 
 410   0.0000       4.176335       113.6439 
 411   0.0000       4.219431       114.8165 
 412   0.0000       4.234610       115.2296 
 413   0.0000       4.280595       116.4809 
 414   0.0000       4.325167       117.6938 
 415   0.0000       4.412546       120.0715 
 416   0.0000       4.829756       131.4243 
 417   0.0000       4.951653       134.7413 
 418   0.0000       5.015756       136.4857 
 419   0.0000       5.106217       138.9472 
 420   0.0000       5.309529       144.4796 
 421   0.0000       5.528961       150.4507 
 422   0.0000       5.824174       158.4838 
 423   0.0000      23.608018       642.4068 
 424   0.0000      23.777789       647.0265 
 425   0.0000      23.834336       648.5653 
 426   0.0000      23.844133       648.8319 
 427   0.0000      23.919534       650.8836 
 428   0.0000      23.949706       651.7046 
 429   0.0000      23.961660       652.0299 
 430   0.0000      23.970433       652.2686 
 431   0.0000      23.981720       652.5758 
 432   0.0000      23.993678       652.9012 
 433   0.0000      24.065814       654.8641 
 434   0.0000      24.087604       655.4570 
 435   0.0000      24.171179       657.7312 
 436   0.0000      49.881573      1357.3466 
 437   0.0000      50.020441      1361.1254 

                    ********************************
                    * MULLIKEN POPULATION ANALYSIS *
                    ********************************

-----------------------
MULLIKEN ATOMIC CHARGES
-----------------------
   0 C :   -0.741173
   1 C :    0.730118
   2 C :   -0.899404
   3 C :   -1.710089
   4 C :    2.289064
   5 C :   -0.814519
   6 C :   -0.741464
   7 C :    1.273916
   8 C :   -0.909822
   9 C :   -0.501082
  10 C :    0.021243
  11 C :   -0.654574
  12 C :   -0.049682
  13 O :   -0.222974
  14 O :   -0.333277
  15 H :    0.161270
  16 H :    0.170288
  17 H :    0.166636
  18 H :    0.157009
  19 H :    0.167197
  20 H :    0.161575
  21 H :    0.161711
  22 H :    0.177397
  23 H :    0.191073
  24 H :    0.155784
  25 H :    0.156639
  26 H :    0.174008
  27 H :    0.153200
  28 H :    0.216491
  29 H :    0.183100
  30 H :    0.181632
  31 H :    0.179719
  32 H :    0.348991
Sum of atomic charges:    0.0000000

--------------------------------
MULLIKEN REDUCED ORBITAL CHARGES
--------------------------------
  0 C s       :     3.580243  s :     3.580243
      pz      :     1.011790  p :     3.114510
      px      :     1.100529
      py      :     1.002191
      dz2     :     0.011273  d :     0.046420
      dxz     :     0.008021
      dyz     :     0.008695
      dx2y2   :     0.012735
      dxy     :     0.005695
  1 C s       :     2.557860  s :     2.557860
      pz      :     0.831074  p :     2.639571
      px      :     0.831312
      py      :     0.977185
      dz2     :     0.015731  d :     0.072451
      dxz     :     0.014263
      dyz     :     0.014710
      dx2y2   :     0.015683
      dxy     :     0.012064
  2 C s       :     3.719350  s :     3.719350
      pz      :     1.100557  p :     3.133708
      px      :     0.955652
      py      :     1.077499
      dz2     :     0.007004  d :     0.046346
      dxz     :     0.009827
      dyz     :     0.010231
      dx2y2   :     0.009287
      dxy     :     0.009998
  3 C s       :     4.677725  s :     4.677725
      pz      :     1.028598  p :     2.973381
      px      :     0.783686
      py      :     1.161098
      dz2     :     0.010615  d :     0.058983
      dxz     :     0.011209
      dyz     :     0.013857
      dx2y2   :     0.013611
      dxy     :     0.009691
  4 C s       :     1.699066  s :     1.699066
      pz      :     0.788358  p :     1.939451
      px      :     0.516539
      py      :     0.634555
      dz2     :     0.004653  d :     0.072418
      dxz     :     0.010430
      dyz     :     0.010370
      dx2y2   :     0.023367
      dxy     :     0.023597
  5 C s       :     3.598156  s :     3.598156
      pz      :     0.968962  p :     3.158797
      px      :     1.144255
      py      :     1.045580
      dz2     :     0.003689  d :     0.057566
      dxz     :     0.009830
      dyz     :     0.005081
      dx2y2   :     0.019107
      dxy     :     0.019860
  6 C s       :     3.620851  s :     3.620851
      pz      :     1.032158  p :     3.062569
      px      :     1.065838
      py      :     0.964573
      dz2     :     0.003913  d :     0.058044
      dxz     :     0.009337
      dyz     :     0.006134
      dx2y2   :     0.016672
      dxy     :     0.021988
  7 C s       :     2.407573  s :     2.407573
      pz      :     1.033655  p :     2.247564
      px      :     0.690110
      py      :     0.523800
      dz2     :     0.005128  d :     0.070947
      dxz     :     0.009277
      dyz     :     0.010810
      dx2y2   :     0.023717
      dxy     :     0.022015
  8 C s       :     3.708178  s :     3.708178
      pz      :     0.999575  p :     3.143448
      px      :     1.208019
      py      :     0.935854
      dz2     :     0.003638  d :     0.058196
      dxz     :     0.010583
      dyz     :     0.005246
      dx2y2   :     0.018667
      dxy     :     0.020062
  9 C s       :     3.467107  s :     3.467107
      pz      :     0.955173  p :     2.975783
      px      :     0.961956
      py      :     1.058654
      dz2     :     0.003759  d :     0.058192
      dxz     :     0.008911
      dyz     :     0.006017
      dx2y2   :     0.017266
      dxy     :     0.022238
 10 C s       :     3.095373  s :     3.095373
      pz      :     0.730900  p :     2.815091
      px      :     0.976408
      py      :     1.107784
      dz2     :     0.013504  d :     0.068293
      dxz     :     0.015986
      dyz     :     0.012755
      dx2y2   :     0.013234
      dxy     :     0.012815
 11 C s       :     3.524821  s :     3.524821
      pz      :     0.880622  p :     3.083551
      px      :     1.123047
      py      :     1.079882
[...]
      py      :     0.009307
 19 H s       :     0.810989  s :     0.810989
      pz      :     0.005840  p :     0.021581
      px      :     0.006423
      py      :     0.009319
 20 H s       :     0.815845  s :     0.815845
      pz      :     0.010589  p :     0.021848
      px      :     0.005772
      py      :     0.005487
 21 H s       :     0.815536  s :     0.815536
      pz      :     0.007870  p :     0.021871
      px      :     0.004911
      py      :     0.009090
 22 H s       :     0.799171  s :     0.799171
      pz      :     0.005282  p :     0.021125
      px      :     0.005915
      py      :     0.009928
 23 H s       :     0.792806  s :     0.792806
      pz      :     0.007544  p :     0.021506
      px      :     0.005105
      py      :     0.008857
 24 H s       :     0.820925  s :     0.820925
      pz      :     0.005920  p :     0.024243
      px      :     0.005945
      py      :     0.012378
 25 H s       :     0.818152  s :     0.818152
      pz      :     0.005842  p :     0.024395
      px      :     0.007675
      py      :     0.010879
 26 H s       :     0.807728  s :     0.807728
      pz      :     0.005968  p :     0.024428
      px      :     0.005917
      py      :     0.012543
 27 H s       :     0.823274  s :     0.823274
      pz      :     0.005871  p :     0.024299
      px      :     0.007662
      py      :     0.010766
 28 H s       :     0.750574  s :     0.750574
      pz      :     0.004632  p :     0.021744
      px      :     0.005637
      py      :     0.011475
 29 H s       :     0.784990  s :     0.784990
      pz      :     0.005030  p :     0.021773
      px      :     0.005857
      py      :     0.010887
 30 H s       :     0.798840  s :     0.798840
      pz      :     0.008292  p :     0.021854
      px      :     0.005608
      py      :     0.007954
 31 H s       :     0.798062  s :     0.798062
      pz      :     0.004659  p :     0.022077
      px      :     0.012280
      py      :     0.005138
 32 H s       :     0.592007  s :     0.592007
      pz      :     0.014355  p :     0.061913
      px      :     0.025808
      py      :     0.021751


                     *******************************
                     * LOEWDIN POPULATION ANALYSIS *
                     *******************************

----------------------
LOEWDIN ATOMIC CHARGES
----------------------
   0 C :   -0.120053
   1 C :   -0.163457
   2 C :   -0.123320
   3 C :   -0.106737
   4 C :   -0.111671
   5 C :   -0.061170
   6 C :   -0.055712
   7 C :   -0.139703
   8 C :   -0.056522
   9 C :   -0.063091
  10 C :   -0.115804
  11 C :   -0.078857
  12 C :   -0.005026
  13 O :   -0.056947
  14 O :   -0.216767
  15 H :    0.059770
  16 H :    0.068720
  17 H :    0.066792
  18 H :    0.075086
  19 H :    0.065060
  20 H :    0.059016
  21 H :    0.059332
  22 H :    0.086479
  23 H :    0.085526
  24 H :    0.089842
  25 H :    0.090086
  26 H :    0.096024
  27 H :    0.088929
  28 H :    0.115708
  29 H :    0.075955
  30 H :    0.071830
  31 H :    0.069412
  32 H :    0.151272

-------------------------------
LOEWDIN REDUCED ORBITAL CHARGES
-------------------------------
  0 C s       :     2.803495  s :     2.803495
      pz      :     1.073205  p :     3.219611
      px      :     1.079591
      py      :     1.066815
      dz2     :     0.025327  d :     0.096948
      dxz     :     0.010857
      dyz     :     0.021200
      dx2y2   :     0.022622
      dxy     :     0.016942
  1 C s       :     2.810686  s :     2.810686
      pz      :     1.058358  p :     3.197485
      px      :     1.068365
      py      :     1.070762
      dz2     :     0.034777  d :     0.155286
      dxz     :     0.027369
      dyz     :     0.033691
      dx2y2   :     0.031177
      dxy     :     0.028271
  2 C s       :     2.809932  s :     2.809932
      pz      :     1.085190  p :     3.216296
      px      :     1.050983
      py      :     1.080123
      dz2     :     0.016288  d :     0.097092
      dxz     :     0.018253
      dyz     :     0.019520
      dx2y2   :     0.020812
      dxy     :     0.022218
  3 C s       :     2.790836  s :     2.790836
      pz      :     1.065467  p :     3.189366
      px      :     1.042377
      py      :     1.081522
      dz2     :     0.024481  d :     0.126535
      dxz     :     0.024807
      dyz     :     0.027016
      dx2y2   :     0.029360
      dxy     :     0.020872
  4 C s       :     2.795614  s :     2.795614
      pz      :     0.933395  p :     3.153615
      px      :     1.091236
      py      :     1.128984
      dz2     :     0.010922  d :     0.162442
      dxz     :     0.019458
      dyz     :     0.020576
      dx2y2   :     0.055190
      dxy     :     0.056296
  5 C s       :     2.792021  s :     2.792021
      pz      :     0.967198  p :     3.137969
      px      :     1.102352
      py      :     1.068419
      dz2     :     0.008463  d :     0.131180
      dxz     :     0.019065
      dyz     :     0.008521
      dx2y2   :     0.047135
      dxy     :     0.047995
  6 C s       :     2.792628  s :     2.792628
      pz      :     0.962178  p :     3.129831
      px      :     1.098304
      py      :     1.069348
      dz2     :     0.008606  d :     0.133254
      dxz     :     0.017764
      dyz     :     0.011948
      dx2y2   :     0.042711
      dxy     :     0.052224
  7 C s       :     2.792217  s :     2.792217
      pz      :     0.983698  p :     3.185014
      px      :     1.066073
      py      :     1.135243
      dz2     :     0.011504  d :     0.162471
      dxz     :     0.017168
      dyz     :     0.021960
      dx2y2   :     0.057167
      dxy     :     0.054672
  8 C s       :     2.788597  s :     2.788597
      pz      :     0.962692  p :     3.135573
      px      :     1.106165
      py      :     1.066715
      dz2     :     0.008528  d :     0.132352
      dxz     :     0.020282
      dyz     :     0.009153
      dx2y2   :     0.045664
      dxy     :     0.048725
  9 C s       :     2.793550  s :     2.793550
      pz      :     0.969534  p :     3.137679
      px      :     1.096411
      py      :     1.071734
      dz2     :     0.008585  d :     0.131862
      dxz     :     0.016907
      dyz     :     0.010958
      dx2y2   :     0.043499
      dxy     :     0.051914
 10 C s       :     2.786161  s :     2.786161
      pz      :     1.056375  p :     3.177784
      px      :     1.051884
      py      :     1.069525
      dz2     :     0.032109  d :     0.151859
      dxz     :     0.032939
      dyz     :     0.033513
      dx2y2   :     0.030099
      dxy     :     0.023199
 11 C s       :     2.795966  s :     2.795966
      pz      :     1.029723  p :     3.187657
      px      :     1.077756
      py      :     1.080178
      dz2     :     0.024389  d :     0.095234
      dxz     :     0.013881
      dyz     :     0.024209
      dx2y2   :     0.023536
      dxy     :     0.009219
 12 C s       :     2.784894  s :     2.784894
      pz      :     0.965016  p :     2.812492
      px      :     0.936192
      py      :     0.911285
      dz2     :     0.085200  d :     0.407640
      dxz     :     0.113924
      dyz     :     0.077564
      dx2y2   :     0.067827
      dxy     :     0.063125
 13 O s       :     3.407597  s :     3.407597
      pz      :     1.543796  p :     4.630461
      px      :     1.467688
      py      :     1.618977
      dz2     :     0.007763  d :     0.018888
      dxz     :     0.004233
      dyz     :     0.002104
      dx2y2   :     0.000629
      dxy     :     0.004159
 14 O s       :     3.510045  s :     3.510045
      pz      :     1.742636  p :     4.683796
      px      :     1.467610
      py      :     1.473549
      dz2     :     0.003506  d :     0.022927
      dxz     :     0.002802
      dyz     :     0.001858
      dx2y2   :     0.004939
      dxy     :     0.009823
 15 H s       :     0.872369  s :     0.872369
      pz      :     0.036160  p :     0.067861
      px      :     0.016706
      py      :     0.014996
 16 H s       :     0.863641  s :     0.863641
      pz      :     0.015585  p :     0.067639
      px      :     0.019022
      py      :     0.033032
 17 H s       :     0.864317  s :     0.864317
      pz      :     0.013805  p :     0.068891
      px      :     0.040442
      py      :     0.014644
 18 H s       :     0.854816  s :     0.854816
      pz      :     0.017148  p :     0.070099
      px      :     0.020233
      py      :     0.032717
 19 H s       :     0.867146  s :     0.867146
      pz      :     0.016372  p :     0.067795
      px      :     0.020694
      py      :     0.030729
 20 H s       :     0.873128  s :     0.873128
      pz      :     0.035532  p :     0.067857
      px      :     0.017542
      py      :     0.014782
 21 H s       :     0.872855  s :     0.872855
      pz      :     0.024109  p :     0.067813
      px      :     0.014335
      py      :     0.029369
 22 H s       :     0.845137  s :     0.845137
      pz      :     0.017067  p :     0.068385
      px      :     0.017821
      py      :     0.033497
 23 H s       :     0.845343  s :     0.845343
      pz      :     0.025273  p :     0.069130
      px      :     0.015056
      py      :     0.028801
 24 H s       :     0.839866  s :     0.839866
      pz      :     0.014880  p :     0.070291
      px      :     0.017051
      py      :     0.038360
 25 H s       :     0.839636  s :     0.839636
      pz      :     0.014638  p :     0.070278
      px      :     0.022709
      py      :     0.032931
 26 H s       :     0.833457  s :     0.833457
      pz      :     0.014762  p :     0.070519
      px      :     0.017056
      py      :     0.038701
 27 H s       :     0.840968  s :     0.840968
      pz      :     0.014725  p :     0.070103
      px      :     0.022587
      py      :     0.032791
 28 H s       :     0.813152  s :     0.813152
      pz      :     0.015229  p :     0.071140
      px      :     0.017591
      py      :     0.038321
 29 H s       :     0.855606  s :     0.855606
      pz      :     0.014681  p :     0.068439
      px      :     0.016724
      py      :     0.037034
 30 H s       :     0.860016  s :     0.860016
      pz      :     0.026497  p :     0.068154
      px      :     0.015989
      py      :     0.025668
 31 H s       :     0.861660  s :     0.861660
      pz      :     0.012973  p :     0.068928
      px      :     0.042568
      py      :     0.013387
 32 H s       :     0.665759  s :     0.665759
      pz      :     0.033088  p :     0.182969
      px      :     0.081753
      py      :     0.068128


                      *****************************
                      * MAYER POPULATION ANALYSIS *
                      *****************************

  NA   - Mulliken gross atomic population
  ZA   - Total nuclear charge
  QA   - Mulliken gross atomic charge
  VA   - Mayer's total valence
  BVA  - Mayer's bonded valence
  FA   - Mayer's free valence

  ATOM       NA         ZA         QA         VA         BVA        FA
  0 C      6.7625     6.0000    -0.7625     3.5420     3.5420    -0.0000
  1 C      5.3512     6.0000     0.6488     2.1422     2.1422    -0.0000
  2 C      6.8673     6.0000    -0.8673     3.5639     3.5639    -0.0000
  3 C      7.4063     6.0000    -1.4063     2.5999     2.5999    -0.0000
  4 C      3.9858     6.0000     2.0142    -0.2444    -0.2444     0.0000
  5 C      6.6881     6.0000    -0.6881     4.1483     4.1483     0.0000
  6 C      6.4907     6.0000    -0.4907     3.0978     3.0978    -0.0000
  7 C      4.8861     6.0000     1.1139     2.2386     2.2386    -0.0000
  8 C      6.9523     6.0000    -0.9523     4.4808     4.4808     0.0000
  9 C      6.6209     6.0000    -0.6209     3.8152     3.8152    -0.0000
 10 C      5.9493     6.0000     0.0507     2.9311     2.9311     0.0000
 11 C      6.7282     6.0000    -0.7282     3.7079     3.7079    -0.0000
 12 C      6.0553     6.0000    -0.0553     4.1848     4.1848    -0.0000
 13 O      8.1920     8.0000    -0.1920     2.0355     2.0355    -0.0000
 14 O      8.3387     8.0000    -0.3387     2.0164     2.0164     0.0000
 15 H      0.8375     1.0000     0.1625     0.9408     0.9408    -0.0000
 16 H      0.8308     1.0000     0.1692     0.9403     0.9403     0.0000
 17 H      0.8297     1.0000     0.1703     0.9404     0.9404     0.0000
 18 H      0.8437     1.0000     0.1563     0.9639     0.9639    -0.0000
 19 H      0.8326     1.0000     0.1674     0.9400     0.9400     0.0000
 20 H      0.8377     1.0000     0.1623     0.9376     0.9376    -0.0000
 21 H      0.8374     1.0000     0.1626     0.9364     0.9364     0.0000
 22 H      0.8203     1.0000     0.1797     0.9409     0.9409    -0.0000
 23 H      0.8143     1.0000     0.1857     0.9314     0.9314     0.0000
 24 H      0.8452     1.0000     0.1548     0.9621     0.9621    -0.0000
 25 H      0.8425     1.0000     0.1575     0.9586     0.9586    -0.0000
 26 H      0.8322     1.0000     0.1678     0.9572     0.9572    -0.0000
 27 H      0.8476     1.0000     0.1524     0.9617     0.9617     0.0000
 28 H      0.7723     1.0000     0.2277     0.9336     0.9336     0.0000
 29 H      0.8068     1.0000     0.1932     0.9369     0.9369    -0.0000
 30 H      0.8207     1.0000     0.1793     0.9383     0.9383    -0.0000
 31 H      0.8201     1.0000     0.1799     0.9330     0.9330    -0.0000
 32 H      0.6539     1.0000     0.3461     0.9323     0.9323    -0.0000

  Mayer bond orders larger than 0.100000
B(  0-C ,  1-C ) :   0.6358 B(  0-C ,  2-C ) :  -0.1548 B(  0-C , 15-H ) :   1.0133 
B(  0-C , 16-H ) :   1.0117 B(  0-C , 17-H ) :   1.0000 B(  1-C ,  2-C ) :   0.4294 
B(  1-C ,  3-C ) :   0.4400 B(  1-C ,  5-C ) :   0.1083 B(  1-C , 18-H ) :   0.9827 
B(  2-C ,  3-C ) :   0.5245 B(  2-C ,  4-C ) :  -0.4486 B(  2-C ,  5-C ) :   0.1172 
B(  2-C , 19-H ) :   1.0377 B(  2-C , 20-H ) :   1.0066 B(  2-C , 21-H ) :   1.0046 
B(  3-C ,  4-C ) :  -1.4198 B(  3-C ,  5-C ) :   0.3675 B(  3-C ,  6-C ) :   0.1067 
B(  3-C ,  7-C ) :  -0.1759 B(  3-C ,  8-C ) :   0.1637 B(  3-C , 22-H ) :   1.3212 
B(  3-C , 23-H ) :   1.1622 B(  4-C ,  5-C ) :   0.9657 B(  4-C ,  7-C ) :   0.6102 
B(  4-C ,  8-C ) :  -0.2595 B(  4-C ,  9-C ) :   1.1646 B(  4-C , 10-C ) :  -0.1693 
B(  4-C , 18-H ) :  -0.1337 B(  4-C , 22-H ) :  -0.5110 B(  4-C , 23-H ) :  -0.2223 
B(  5-C ,  6-C ) :   1.0402 B(  5-C ,  9-C ) :   0.4858 B(  5-C , 24-H ) :   1.0422 
B(  6-C ,  7-C ) :   1.2558 B(  6-C ,  8-C ) :   0.4078 B(  6-C ,  9-C ) :  -0.2682 
B(  6-C , 12-C ) :  -0.1932 B(  6-C , 13-O ) :  -0.1505 B(  6-C , 24-H ) :  -0.1096 
B(  6-C , 25-H ) :   1.0085 B(  6-C , 28-H ) :   0.1376 B(  6-C , 32-H ) :  -0.1010 
B(  7-C ,  8-C ) :   1.1156 B(  7-C ,  9-C ) :  -0.1051 B(  7-C , 10-C ) :   0.2359 
B(  7-C , 11-C ) :  -0.4205 B(  7-C , 12-C ) :  -0.4000 B(  7-C , 13-O ) :   0.4070 
B(  7-C , 28-H ) :  -0.3214 B(  7-C , 29-H ) :  -0.1792 B(  7-C , 32-H ) :   0.1950 
B(  8-C ,  9-C ) :   1.1353 B(  8-C , 11-C ) :   0.4086 B(  8-C , 12-C ) :   0.5858 
B(  8-C , 14-O ) :  -0.1671 B(  8-C , 26-H ) :   0.9910 B(  9-C , 10-C ) :   0.2684 
B(  9-C , 22-H ) :   0.1959 B(  9-C , 27-H ) :   1.0042 B( 10-C , 11-C ) :   0.8618 
B( 10-C , 12-C ) :   0.8463 B( 10-C , 13-O ) :  -0.3170 B( 10-C , 28-H ) :   1.0755 
B( 10-C , 29-H ) :   0.1091 B( 11-C , 12-C ) :  -0.1044 B( 11-C , 29-H ) :   0.9622 
B( 11-C , 30-H ) :   1.0049 B( 11-C , 31-H ) :   0.9923 B( 12-C , 13-O ) :   1.3615 
B( 12-C , 14-O ) :   2.0569 B( 13-O , 32-H ) :   0.8218 

-------
TIMINGS
-------

Total SCF time: 0 days 0 hours 1 min 7 sec 

Total time                  ....      67.318 sec
Sum of individual times     ....      66.910 sec  ( 99.4%)

Fock matrix formation       ....      65.510 sec  ( 97.3%)
  Split-RI-J                ....      11.466 sec  ( 17.5% of F)
  XC integration            ....      33.261 sec  ( 50.8% of F)
    Basis function eval.    ....       6.025 sec  ( 18.1% of XC)
    Density eval.           ....      16.129 sec  ( 48.5% of XC)
    XC-Functional eval.     ....       1.017 sec  (  3.1% of XC)
    XC-Potential eval.      ....       8.971 sec  ( 27.0% of XC)
Diagonalization             ....       0.017 sec  (  0.0%)
Density matrix formation    ....       0.023 sec  (  0.0%)
Population analysis         ....       0.027 sec  (  0.0%)
Initial guess               ....       0.019 sec  (  0.0%)
Orbital Transformation      ....       0.000 sec  (  0.0%)
Orbital Orthonormalization  ....       0.013 sec  (  0.0%)
DIIS solution               ....       0.007 sec  (  0.0%)
SOSCF solution              ....       0.202 sec  (  0.3%)
Grid generation             ....       1.105 sec  (  1.6%)

Maximum memory used throughout the entire SCF-calculation: 159.3 MB

-------------------------   --------------------
FINAL SINGLE POINT ENERGY      -656.999863282486
-------------------------   --------------------

                                *** OPTIMIZATION RUN DONE ***

                            ***************************************
                            *     ORCA property calculations      *
                            ***************************************

                                    ---------------------
                                    Active property flags
                                    ---------------------
   (+) Dipole Moment


------------------------------------------------------------------------------
                       ORCA ELECTRIC PROPERTIES CALCULATION
------------------------------------------------------------------------------

Dipole Moment Calculation                       ... on
Quadrupole Moment Calculation                   ... off
Polarizability Calculation                      ... off
GBWName                                         ... Ibuprofeno\Ibuprofeno_TPSS_6-311+G\Ibuprofeno_TPSS_6-311+G.orcainp.gbw
Electron density                                ... Ibuprofeno\Ibuprofeno_TPSS_6-311+G\Ibuprofeno_TPSS_6-311+G.orcainp.scfp
The origin for moment calculation is the CENTER OF MASS  = (11.333057,  3.707515  1.137505)

-------------
DIPOLE MOMENT
-------------
                                X             Y             Z
Electronic contribution:     19.10460       3.46725      -0.38104
Nuclear contribution   :    -21.09482      -5.10235      -0.15755
                        -----------------------------------------
Total Dipole Moment    :     -1.99023      -1.63511      -0.53859
                        -----------------------------------------
Magnitude (a.u.)       :      2.63148
Magnitude (Debye)      :      6.68868



--------------------
Rotational spectrum 
--------------------
 
Rotational constants in cm-1:     0.048346     0.008432     0.007928 
Rotational constants in MHz :  1449.364531   252.772383   237.677464 

 Dipole components along the rotational axes: 
x,y,z [a.u.] :    -2.211334    -1.200642    -0.770148 
x,y,z [Debye]:    -5.620763    -3.051789    -1.957560 

 

Timings for individual modules:

Sum of individual times         ...     1675.251 sec (=  27.921 min)
GTO integral calculation        ...        4.646 sec (=   0.077 min)   0.3 %
SCF iterations                  ...     1359.904 sec (=  22.665 min)  81.2 %
SCF Gradient evaluation         ...      309.461 sec (=   5.158 min)  18.5 %
Geometry relaxation             ...        1.240 sec (=   0.021 min)   0.1 %
                             ****ORCA TERMINATED NORMALLY****
TOTAL RUN TIME: 0 days 0 hours 27 minutes 56 seconds 816 msec
