
                                 *****************
                                 * O   R   C   A *
                                 *****************

                                            #,                                       
                                            ###                                      
                                            ####                                     
                                            #####                                    
                                            ######                                   
                                           ########,                                 
                                     ,,################,,,,,                         
                               ,,#################################,,                 
                          ,,##########################################,,             
                       ,#########################################, ''#####,          
                    ,#############################################,,   '####,        
                  ,##################################################,,,,####,       
                ,###########''''           ''''###############################       
              ,#####''   ,,,,##########,,,,          '''####'''          '####       
            ,##' ,,,,###########################,,,                        '##       
           ' ,,###''''                  '''############,,,                           
         ,,##''                                '''############,,,,        ,,,,,,###''
      ,#''                                            '''#######################'''  
     '                                                          ''''####''''         
             ,#######,   #######,   ,#######,      ##                                
            ,#'     '#,  ##    ##  ,#'     '#,    #''#        ######   ,####,        
            ##       ##  ##   ,#'  ##            #'  '#       #        #'  '#        
            ##       ##  #######   ##           ,######,      #####,   #    #        
            '#,     ,#'  ##    ##  '#,     ,#' ,#      #,         ##   #,  ,#        
             '#######'   ##     ##  '#######'  #'      '#     #####' # '####'        



                  #######################################################
                  #                        -***-                        #
                  #          Department of theory and spectroscopy      #
                  #    Directorship and core code : Frank Neese         #
                  #        Max Planck Institute fuer Kohlenforschung    #
                  #                Kaiser Wilhelm Platz 1               #
                  #                 D-45470 Muelheim/Ruhr               #
                  #                      Germany                        #
                  #                                                     #
                  #                  All rights reserved                #
                  #                        -***-                        #
                  #######################################################



                         Program Version 5.0.4 -  RELEASE  -

 With contributions from (in alphabetic order):
   Daniel Aravena         : Magnetic Suceptibility
   Michael Atanasov       : Ab Initio Ligand Field Theory (pilot matlab implementation)
   Alexander A. Auer      : GIAO ZORA, VPT2 properties, NMR spectrum
   Ute Becker             : Parallelization
   Giovanni Bistoni       : ED, misc. LED, open-shell LED, HFLD
   Martin Brehm           : Molecular dynamics
   Dmytro Bykov           : SCF Hessian
   Vijay G. Chilkuri      : MRCI spin determinant printing, contributions to CSF-ICE
   Dipayan Datta          : RHF DLPNO-CCSD density
   Achintya Kumar Dutta   : EOM-CC, STEOM-CC
   Dmitry Ganyushin       : Spin-Orbit,Spin-Spin,Magnetic field MRCI
   Miquel Garcia          : C-PCM and meta-GGA Hessian, CC/C-PCM, Gaussian charge scheme
   Yang Guo               : DLPNO-NEVPT2, F12-NEVPT2, CIM, IAO-localization
   Andreas Hansen         : Spin unrestricted coupled pair/coupled cluster methods
   Benjamin Helmich-Paris : MC-RPA, TRAH-SCF, COSX integrals
   Lee Huntington         : MR-EOM, pCC
   Robert Izsak           : Overlap fitted RIJCOSX, COSX-SCS-MP3, EOM
   Marcus Kettner         : VPT2
   Christian Kollmar      : KDIIS, OOCD, Brueckner-CCSD(T), CCSD density, CASPT2, CASPT2-K
   Simone Kossmann        : Meta GGA functionals, TD-DFT gradient, OOMP2, MP2 Hessian
   Martin Krupicka        : Initial AUTO-CI
   Lucas Lang             : DCDCAS
   Marvin Lechner         : AUTO-CI (C++ implementation), FIC-MRCC
   Dagmar Lenk            : GEPOL surface, SMD
   Dimitrios Liakos       : Extrapolation schemes; Compound Job, initial MDCI parallelization
   Dimitrios Manganas     : Further ROCIS development; embedding schemes
   Dimitrios Pantazis     : SARC Basis sets
   Anastasios Papadopoulos: AUTO-CI, single reference methods and gradients
   Taras Petrenko         : DFT Hessian,TD-DFT gradient, ASA, ECA, R-Raman, ABS, FL, XAS/XES, NRVS
   Peter Pinski           : DLPNO-MP2, DLPNO-MP2 Gradient
   Christoph Reimann      : Effective Core Potentials
   Marius Retegan         : Local ZFS, SOC
   Christoph Riplinger    : Optimizer, TS searches, QM/MM, DLPNO-CCSD(T), (RO)-DLPNO pert. Triples
   Tobias Risthaus        : Range-separated hybrids, TD-DFT gradient, RPA, STAB
   Michael Roemelt        : Original ROCIS implementation
   Masaaki Saitow         : Open-shell DLPNO-CCSD energy and density
   Barbara Sandhoefer     : DKH picture change effects
   Avijit Sen             : IP-ROCIS
   Kantharuban Sivalingam : CASSCF convergence, NEVPT2, FIC-MRCI
   Bernardo de Souza      : ESD, SOC TD-DFT
   Georgi Stoychev        : AutoAux, RI-MP2 NMR, DLPNO-MP2 response
   Willem Van den Heuvel  : Paramagnetic NMR
   Boris Wezisla          : Elementary symmetry handling
   Frank Wennmohs         : Technical directorship


 We gratefully acknowledge several colleagues who have allowed us to
 interface, adapt or use parts of their codes:
   Stefan Grimme, W. Hujo, H. Kruse, P. Pracht,  : VdW corrections, initial TS optimization,
                  C. Bannwarth, S. Ehlert          DFT functionals, gCP, sTDA/sTD-DF
   Ed Valeev, F. Pavosevic, A. Kumar             : LibInt (2-el integral package), F12 methods
   Garnet Chan, S. Sharma, J. Yang, R. Olivares  : DMRG
   Ulf Ekstrom                                   : XCFun DFT Library
   Mihaly Kallay                                 : mrcc  (arbitrary order and MRCC methods)
   Jiri Pittner, Ondrej Demel                    : Mk-CCSD
   Frank Weinhold                                : gennbo (NPA and NBO analysis)
   Christopher J. Cramer and Donald G. Truhlar   : smd solvation model
   Lars Goerigk                                  : TD-DFT with DH, B97 family of functionals
   V. Asgeirsson, H. Jonsson                     : NEB implementation
   FAccTs GmbH                                   : IRC, NEB, NEB-TS, DLPNO-Multilevel, CI-OPT
                                                   MM, QMMM, 2- and 3-layer-ONIOM, Crystal-QMMM,
                                                   LR-CPCM, SF, NACMEs, symmetry and pop. for TD-DFT,
                                                   nearIR, NL-DFT gradient (VV10), updates on ESD,
                                                   ML-optimized integration grids
   S Lehtola, MJT Oliveira, MAL Marques          : LibXC Library
   Liviu Ungur et al                             : ANISO software


 Your calculation uses the libint2 library for the computation of 2-el integrals
 For citations please refer to: http://libint.valeyev.net

 Your ORCA version has been built with support for libXC version: 5.1.0
 For citations please refer to: https://tddft.org/programs/libxc/

 This ORCA versions uses:
   CBLAS   interface :  Fast vector & matrix operations
   LAPACKE interface :  Fast linear algebra routines
   Shared memory     :  Shared parallel matrices


================================================================================

----- Orbital basis set information -----
Your calculation utilizes the basis: STO-3G
   H-Ne       : W. J. Hehre, R. F. Stewart and J. A. Pople, J. Chem. Phys. 2657 (1969).
   Na-Ar      : W. J. Hehre, R. Ditchfield, R. F. Stewart and J. A. Pople, J. Chem. Phys. 2769 (1970).
   K,Ca,Ga-Kr : W. J. Pietro, B. A. Levy, W. J. Hehre and R. F. Stewart, J. Am. Chem. Soc. 19, 2225 (1980).
   Sc-Zn,Y-Cd : W. J. Pietro and W. J. Hehre, J. Comp. Chem. 4, 241 (1983).

----- AuxJ basis set information -----
Your calculation utilizes the auxiliary basis: def2/J
   F. Weigend, Phys. Chem. Chem. Phys. 8, 1057 (2006).

================================================================================
                                        WARNINGS
                       Please study these warnings very carefully!
================================================================================


WARNING: Geometry Optimization
  ===> : Switching off AutoStart
         For restart on a previous wavefunction, please use MOREAD

INFO   : the flag for use of the SHARK integral package has been found!

================================================================================
                                       INPUT FILE
================================================================================
NAME = Dexketoprofen\Dexketoprofen_B3LYP_STO-3G\Dexketoprofen_B3LYP_STO-3G.orcainp
|  1> # ORCA input file
|  2> # 
|  3> !B3LYP STO-3G Opt CPCM(WATER)
|  4> 
|  5> * xyz 0 1
|  6>    H        1.10619        -0.41173         0.44946
|  7>    C        2.05472        -0.09997        -0.01088
|  8>    C        1.78114         1.22654        -0.72627
|  9>    C        3.00148         0.16410         1.15800
| 10>    O        4.21906        -0.41471         1.09831
| 11>    O        2.69655         0.88218         2.10441
| 12>    C        2.45732        -1.23816        -0.94689
| 13>    C        2.18816        -2.56754        -0.56568
| 14>    C        2.54026        -3.63999        -1.39981
| 15>    C        3.11867        -3.39013        -2.64579
| 16>    C        3.40208        -2.08206        -3.02965
| 17>    C        3.09074        -1.01686        -2.18108
| 18>    C        2.28814        -5.05345        -1.01778
| 19>    O        1.92369        -5.84096        -1.88874
| 20>    C        2.48736        -5.53509         0.37656
| 21>    C        3.38324        -4.91612         1.25763
| 22>    C        3.53442        -5.40007         2.55916
| 23>    C        2.81363        -6.51774         2.97615
| 24>    C        1.94583        -7.15902         2.09338
| 25>    C        1.78392        -6.67147         0.79507
| 26>    H        1.38597         1.97331        -0.02864
| 27>    H        1.04568         1.09707        -1.52796
| 28>    H        2.69333         1.65214        -1.15938
| 29>    H        4.38866        -0.94038         0.29238
| 30>    H        1.68159        -2.76323         0.37910
| 31>    H        3.34990        -4.21443        -3.31826
| 32>    H        3.85712        -1.89097        -3.99963
| 33>    H        3.33154        -0.01245        -2.52320
| 34>    H        3.98601        -4.06692         0.95063
| 35>    H        4.22100        -4.90994         3.24509
| 36>    H        2.93721        -6.89734         3.98748
| 37>    H        1.39738        -8.04156         2.41344
| 38>    H        1.11007        -7.18267         0.11004
| 39> *
| 40> 
| 41>                          ****END OF INPUT****
================================================================================

                       *****************************
                       * Geometry Optimization Run *
                       *****************************

Geometry optimization settings:
Update method            Update   .... BFGS
Choice of coordinates    CoordSys .... Z-matrix Internals
Initial Hessian          InHess   .... Almoef's Model

Convergence Tolerances:
Energy Change            TolE     ....  5.0000e-06 Eh
Max. Gradient            TolMAXG  ....  3.0000e-04 Eh/bohr
RMS Gradient             TolRMSG  ....  1.0000e-04 Eh/bohr
Max. Displacement        TolMAXD  ....  4.0000e-03 bohr
RMS Displacement         TolRMSD  ....  2.0000e-03 bohr
Strict Convergence                ....  False
------------------------------------------------------------------------------
                        ORCA OPTIMIZATION COORDINATE SETUP
------------------------------------------------------------------------------

The optimization will be done in new redundant internal coordinates
Making redundant internal coordinates   ...  (new redundants) done
Evaluating the initial hessian          ...  (Almloef) done
Evaluating the coordinates              ...  done
Calculating the B-matrix                .... done
Calculating the G-matrix                .... done
Diagonalizing the G-matrix              .... done
Small eigenvalue found = 7.274e-03
Small eigenvalue found = 1.792e-02
Small eigenvalue found = 2.728e-02
The first mode is                       ....   76
The number of degrees of freedom        ....   93

    -----------------------------------------------------------------
                    Redundant Internal Coordinates


    -----------------------------------------------------------------
         Definition                    Initial Value    Approx d2E/dq
    -----------------------------------------------------------------
      1. B(C   1,H   0)                  1.0995         0.347798   
      2. B(C   2,C   1)                  1.5317         0.371181   
      3. B(C   3,C   1)                  1.5272         0.377424   
      4. B(O   4,C   3)                  1.3495         0.649425   
      5. B(O   5,C   3)                  1.2265         1.020287   
      6. B(C   6,C   1)                  1.5276         0.376830   
      7. B(C   7,C   6)                  1.4089         0.582872   
      8. B(C   8,C   7)                  1.4035         0.594501   
      9. B(C   9,C   8)                  1.3962         0.610662   
     10. B(C  10,C   9)                  1.3924         0.619362   
     11. B(C  11,C  10)                  1.3970         0.608898   
     12. B(C  11,C   6)                  1.4048         0.591767   
     13. B(C  12,C   8)                  1.4857         0.439556   
     14. B(O  13,C  12)                  1.2295         1.009276   
     15. B(C  14,C  12)                  1.4886         0.434982   
     16. B(C  15,C  14)                  1.4007         0.600675   
     17. B(C  16,C  15)                  1.3968         0.609387   
     18. B(C  17,C  16)                  1.3938         0.616195   
     19. B(C  18,C  17)                  1.3941         0.615387   
     20. B(C  19,C  18)                  1.3963         0.610603   
     21. B(C  19,C  14)                  1.4005         0.601204   
     22. B(H  20,C   2)                  1.0957         0.352665   
     23. B(H  21,C   2)                  1.0956         0.352749   
     24. B(H  22,C   2)                  1.0958         0.352489   
     25. B(H  23,O   4)                  0.9770         0.488397   
     26. B(H  24,C   7)                  1.0897         0.360454   
     27. B(H  25,C   9)                  1.0886         0.361893   
     28. B(H  26,C  10)                  1.0883         0.362331   
     29. B(H  27,C  11)                  1.0881         0.362678   
     30. B(H  28,C  15)                  1.0857         0.365848   
     31. B(H  29,C  16)                  1.0873         0.363752   
     32. B(H  29,H  23)                  4.9502         0.000000   
     33. B(H  30,C  17)                  1.0873         0.363729   
     34. B(H  31,C  18)                  1.0873         0.363756   
     35. B(H  32,C  19)                  1.0884         0.362192   
     36. A(C   2,C   1,C   3)          108.5686         0.363589   
     37. A(C   3,C   1,C   6)          115.7475         0.364529   
     38. A(H   0,C   1,C   2)          106.6798         0.322135   
     39. A(H   0,C   1,C   3)          105.2718         0.323017   
     40. A(H   0,C   1,C   6)          105.8214         0.322934   
     41. A(C   2,C   1,C   6)          113.9626         0.363491   
     42. A(C   1,C   2,H  21)          111.0574         0.322882   
     43. A(H  20,C   2,H  22)          106.6887         0.288920   
     44. A(C   1,C   2,H  20)          110.9335         0.322870   
     45. A(H  20,C   2,H  21)          107.7181         0.288953   
     46. A(H  21,C   2,H  22)          108.3898         0.288930   
     47. A(C   1,C   2,H  22)          111.8552         0.322843   
     48. A(O   4,C   3,O   5)          120.6348         0.472926   
     49. A(C   1,C   3,O   5)          122.5267         0.431364   
     50. A(C   1,C   3,O   4)          116.8284         0.398088   
     51. A(C   3,O   4,H  23)          115.0791         0.369084   
     52. A(C   7,C   6,C  11)          118.1964         0.425706   
     53. A(C   1,C   6,C  11)          122.6680         0.394054   
     54. A(C   1,C   6,C   7)          119.1356         0.393010   
     55. A(C   8,C   7,H  24)          119.6472         0.350470   
     56. A(C   6,C   7,C   8)          120.8138         0.426057   
     57. A(C   6,C   7,H  24)          119.5266         0.349304   
     58. A(C   7,C   8,C   9)          119.8374         0.429630   
     59. A(C   9,C   8,C  12)          118.0350         0.407127   
     60. A(C   7,C   8,C  12)          122.1106         0.405202   
     61. A(C   8,C   9,C  10)          119.8981         0.432803   
     62. A(C  10,C   9,H  25)          119.8548         0.353144   
     63. A(C   8,C   9,H  25)          120.2471         0.352300   
     64. A(C   9,C  10,H  26)          119.7202         0.353216   
     65. A(C  11,C  10,H  26)          120.0444         0.352199   
     66. A(C   9,C  10,C  11)          120.2315         0.432578   
     67. A(C  10,C  11,H  27)          117.6165         0.352257   
     68. A(C   6,C  11,H  27)          121.4302         0.350562   
     69. A(C   6,C  11,C  10)          120.9323         0.429052   
     70. A(O  13,C  12,C  14)          119.7348         0.441674   
     71. A(C   8,C  12,C  14)          121.7333         0.383615   
     72. A(C   8,C  12,O  13)          118.5239         0.442510   
     73. A(C  15,C  14,C  19)          119.4622         0.429223   
     74. A(C  12,C  14,C  19)          118.3748         0.405256   
     75. A(C  12,C  14,C  15)          122.1280         0.405193   
     76. A(C  14,C  15,C  16)          120.1478         0.430266   
     77. A(C  16,C  15,H  28)          118.3199         0.352824   
     78. A(C  14,C  15,H  28)          121.5249         0.351965   
     79. A(C  15,C  16,C  17)          120.0422         0.432242   
     80. A(C  17,C  16,H  29)          119.9548         0.353144   
     81. A(C  15,C  16,H  29)          120.0009         0.352481   
     82. A(C  16,C  17,C  18)          120.0880         0.433004   
     83. A(C  18,C  17,H  30)          119.9427         0.353062   
     84. A(C  16,C  17,H  30)          119.9652         0.353140   
     85. A(C  17,C  18,C  19)          120.0230         0.432295   
     86. A(C  19,C  18,H  31)          119.9120         0.352600   
     87. A(C  17,C  18,H  31)          120.0645         0.353066   
     88. A(C  14,C  19,C  18)          120.1961         0.430488   
     89. A(C  18,C  19,H  32)          119.5392         0.352343   
     90. A(C  14,C  19,H  32)          120.2643         0.351420   
     91. D(H  20,C   2,C   1,C   3)    -55.9796         0.011010   
     92. D(H  22,C   2,C   1,H   0)    176.0129         0.011010   
     93. D(H  21,C   2,C   1,C   3)   -175.7442         0.011010   
     94. D(H  21,C   2,C   1,H   0)    -62.7448         0.011010   
     95. D(H  21,C   2,C   1,C   6)     53.6548         0.011010   
     96. D(H  20,C   2,C   1,C   6)    173.4194         0.011010   
     97. D(H  22,C   2,C   1,C   6)    -67.5875         0.011010   
     98. D(H  20,C   2,C   1,H   0)     57.0198         0.011010   
     99. D(H  22,C   2,C   1,C   3)     63.0135         0.011010   
    100. D(O   5,C   3,C   1,C   2)     63.0472         0.010639   
    101. D(O   5,C   3,C   1,H   0)    -50.8810         0.010639   
    102. D(O   4,C   3,C   1,C   6)     13.8155         0.010639   
    103. D(O   4,C   3,C   1,C   2)   -115.8039         0.010639   
    104. D(O   5,C   3,C   1,C   6)   -167.3335         0.010639   
    105. D(O   4,C   3,C   1,H   0)    130.2680         0.010639   
    106. D(H  23,O   4,C   3,O   5)   -177.6418         0.031165   
    107. D(H  23,O   4,C   3,C   1)      1.2323         0.031165   
    108. D(C  11,C   6,C   1,C   2)     26.9960         0.010607   
    109. D(C  11,C   6,C   1,H   0)    143.8942         0.010607   
    110. D(C   7,C   6,C   1,C   3)     79.9712         0.010607   
    111. D(C  11,C   6,C   1,C   3)    -99.9627         0.010607   
    112. D(C   7,C   6,C   1,C   2)   -153.0702         0.010607   
    113. D(C   7,C   6,C   1,H   0)    -36.1720         0.010607   
    114. D(H  24,C   7,C   6,C  11)   -178.9135         0.023352   
    115. D(H  24,C   7,C   6,C   1)      1.1497         0.023352   
    116. D(C   8,C   7,C   6,C  11)     -0.2019         0.023352   
    117. D(C   8,C   7,C   6,C   1)    179.8614         0.023352   
    118. D(C  12,C   8,C   7,H  24)     -2.2034         0.024341   
    119. D(C  12,C   8,C   7,C   6)    179.0865         0.024341   
    120. D(C   9,C   8,C   7,H  24)    176.2698         0.024341   
    121. D(C   9,C   8,C   7,C   6)     -2.4404         0.024341   
    122. D(H  25,C   9,C   8,C  12)      1.5131         0.025758   
    123. D(H  25,C   9,C   8,C   7)   -177.0217         0.025758   
    124. D(C  10,C   9,C   8,C  12)   -178.4299         0.025758   
    125. D(C  10,C   9,C   8,C   7)      3.0353         0.025758   
    126. D(H  26,C  10,C   9,H  25)     -0.2217         0.026541   
    127. D(H  26,C  10,C   9,C   8)    179.7215         0.026541   
    128. D(C  11,C  10,C   9,H  25)    179.0633         0.026541   
    129. D(C  11,C  10,C   9,C   8)     -0.9935         0.026541   
    130. D(H  27,C  11,C  10,C   9)    179.9428         0.025601   
    131. D(C   6,C  11,C  10,H  26)    177.5821         0.025601   
    132. D(C   6,C  11,C  10,C   9)     -1.7005         0.025601   
    133. D(H  27,C  11,C   6,C   7)   -179.4363         0.024106   
    134. D(H  27,C  11,C   6,C   1)      0.4981         0.024106   
    135. D(C  10,C  11,C   6,C   7)      2.2702         0.024106   
    136. D(H  27,C  11,C  10,H  26)     -0.7746         0.025601   
    137. D(C  10,C  11,C   6,C   1)   -177.7954         0.024106   
    138. D(C  14,C  12,C   8,C   9)    141.9481         0.013184   
    139. D(C  14,C  12,C   8,C   7)    -39.5524         0.013184   
    140. D(O  13,C  12,C   8,C   9)    -37.0204         0.013184   
    141. D(O  13,C  12,C   8,C   7)    141.4791         0.013184   
    142. D(C  19,C  14,C  12,O  13)    -24.9599         0.012918   
    143. D(C  19,C  14,C  12,C   8)    156.0838         0.012918   
    144. D(C  15,C  14,C  12,O  13)    152.8738         0.012918   
    145. D(C  15,C  14,C  12,C   8)    -26.0825         0.012918   
    146. D(H  28,C  15,C  14,C  19)    176.5973         0.024876   
    147. D(H  28,C  15,C  14,C  12)     -1.2135         0.024876   
    148. D(C  16,C  15,C  14,C  19)     -2.4008         0.024876   
    149. D(C  16,C  15,C  14,C  12)    179.7884         0.024876   
    150. D(H  29,C  16,C  15,H  28)      1.7588         0.025644   
    151. D(H  29,C  16,C  15,C  14)   -179.2114         0.025644   
    152. D(C  17,C  16,C  15,H  28)   -177.7240         0.025644   
    153. D(C  17,C  16,C  15,C  14)      1.3059         0.025644   
    154. D(H  30,C  17,C  16,H  29)      0.1123         0.026254   
    155. D(H  30,C  17,C  16,C  15)    179.5953         0.026254   
    156. D(C  18,C  17,C  16,H  29)   -179.1482         0.026254   
    157. D(C  18,C  17,C  16,C  15)      0.3347         0.026254   
    158. D(H  31,C  18,C  17,H  30)     -0.3703         0.026182   
    159. D(H  31,C  18,C  17,C  16)    178.8904         0.026182   
    160. D(C  19,C  18,C  17,H  30)    179.8778         0.026182   
    161. D(C  19,C  18,C  17,C  16)     -0.8615         0.026182   
    162. D(H  32,C  19,C  18,C  17)    179.5407         0.025753   
    163. D(C  14,C  19,C  18,H  31)    179.9962         0.025753   
    164. D(C  14,C  19,C  18,C  17)     -0.2515         0.025753   
    165. D(H  32,C  19,C  14,C  15)   -177.9158         0.024923   
    166. D(H  32,C  19,C  14,C  12)     -0.0228         0.024923   
    167. D(C  18,C  19,C  14,C  15)      1.8749         0.024923   
    168. D(H  32,C  19,C  18,H  31)     -0.2116         0.025753   
    169. D(C  18,C  19,C  14,C  12)    179.7679         0.024923   
    -----------------------------------------------------------------

Number of atoms                         .... 33
Number of degrees of freedom            .... 169

         *************************************************************
         *                GEOMETRY OPTIMIZATION CYCLE   1            *
         *************************************************************
---------------------------------
CARTESIAN COORDINATES (ANGSTROEM)
---------------------------------
  H      1.106190   -0.411730    0.449460
  C      2.054720   -0.099970   -0.010880
  C      1.781140    1.226540   -0.726270
  C      3.001480    0.164100    1.158000
  O      4.219060   -0.414710    1.098310
  O      2.696550    0.882180    2.104410
  C      2.457320   -1.238160   -0.946890
  C      2.188160   -2.567540   -0.565680
  C      2.540260   -3.639990   -1.399810
  C      3.118670   -3.390130   -2.645790
  C      3.402080   -2.082060   -3.029650
  C      3.090740   -1.016860   -2.181080
  C      2.288140   -5.053450   -1.017780
  O      1.923690   -5.840960   -1.888740
  C      2.487360   -5.535090    0.376560
  C      3.383240   -4.916120    1.257630
  C      3.534420   -5.400070    2.559160
  C      2.813630   -6.517740    2.976150
  C      1.945830   -7.159020    2.093380
  C      1.783920   -6.671470    0.795070
  H      1.385970    1.973310   -0.028640
  H      1.045680    1.097070   -1.527960
  H      2.693330    1.652140   -1.159380
  H      4.388660   -0.940380    0.292380
  H      1.681590   -2.763230    0.379100
  H      3.349900   -4.214430   -3.318260
  H      3.857120   -1.890970   -3.999630
  H      3.331540   -0.012450   -2.523200
  H      3.986010   -4.066920    0.950630
  H      4.221000   -4.909940    3.245090
  H      2.937210   -6.897340    3.987480
  H      1.397380   -8.041560    2.413440
  H      1.110070   -7.182670    0.110040

----------------------------
CARTESIAN COORDINATES (A.U.)
----------------------------
  NO LB      ZA    FRAG     MASS         X           Y           Z
   0 H     1.0000    0     1.008    2.090396   -0.778057    0.849356
   1 C     6.0000    0    12.011    3.882858   -0.188916   -0.020560
   2 C     6.0000    0    12.011    3.365867    2.317825   -1.372451
   3 C     6.0000    0    12.011    5.671975    0.310104    2.188303
   4 O     8.0000    0    15.999    7.972868   -0.783688    2.075505
   5 O     8.0000    0    15.999    5.095741    1.667079    3.976759
   6 C     6.0000    0    12.011    4.643662   -2.339783   -1.789363
   7 C     6.0000    0    12.011    4.135023   -4.851947   -1.068980
   8 C     6.0000    0    12.011    4.800396   -6.878584   -2.645258
   9 C     6.0000    0    12.011    5.893432   -6.406417   -4.999819
  10 C     6.0000    0    12.011    6.428999   -3.934523   -5.725209
  11 C     6.0000    0    12.011    5.840652   -1.921587   -4.121644
  12 C     6.0000    0    12.011    4.323958   -9.549637   -1.923325
  13 O     8.0000    0    15.999    3.635247  -11.037815   -3.569201
  14 C     6.0000    0    12.011    4.700429  -10.459804    0.711595
  15 C     6.0000    0    12.011    6.393397   -9.290120    2.376576
  16 C     6.0000    0    12.011    6.679086  -10.204653    4.836112
  17 C     6.0000    0    12.011    5.316990  -12.316744    5.624108
  18 C     6.0000    0    12.011    3.677086  -13.528587    3.955915
  19 C     6.0000    0    12.011    3.371120  -12.607251    1.502465
  20 H     1.0000    0     1.008    2.619104    3.729015   -0.054122
  21 H     1.0000    0     1.008    1.976049    2.073162   -2.887426
  22 H     1.0000    0     1.008    5.089656    3.122092   -2.190911
  23 H     1.0000    0     1.008    8.293365   -1.777061    0.552518
  24 H     1.0000    0     1.008    3.177745   -5.221748    0.716395
  25 H     1.0000    0     1.008    6.330394   -7.964119   -6.270603
  26 H     1.0000    0     1.008    7.288900   -3.573415   -7.558205
  27 H     1.0000    0     1.008    6.295698   -0.023527   -4.768157
  28 H     1.0000    0     1.008    7.532467   -7.685365    1.796430
  29 H     1.0000    0     1.008    7.976534   -9.278442    6.132331
  30 H     1.0000    0     1.008    5.550522  -13.034084    7.535245
  31 H     1.0000    0     1.008    2.640666  -15.196346    4.560741
  32 H     1.0000    0     1.008    2.097728  -13.573279    0.207945

--------------------------------
INTERNAL COORDINATES (ANGSTROEM)
--------------------------------
 H      0   0   0     0.000000000000     0.00000000     0.00000000
 C      1   0   0     1.099461856592     0.00000000     0.00000000
 C      2   1   0     1.531749864893   106.67984515     0.00000000
 C      2   1   3     1.527209192252   105.27180997   115.23979866
 O      4   2   1     1.349475812529   116.82838877   130.26795364
 O      4   2   1     1.226504414749   122.52670460   309.11898999
 C      2   1   3     1.527638031799   105.82136200   238.29258365
 C      7   2   1     1.408907148857   119.13556427   323.82803282
 C      8   7   2     1.403529931779   120.81375995   179.86135543
 C      9   8   7     1.396228601662   119.83743196   357.55962784
 C     10   9   8     1.392378128455   119.89810637     3.03528553
 C     11  10   9     1.397016349403   120.23154307   359.00646472
 C      9   8   7     1.485725609559   122.11059544   179.08649065
 O     13   9   8     1.229458061180   118.52392237   141.47909879
 C     13   9   8     1.488573052826   121.73326596   320.44761181
 C     15  13   9     1.400717380559   122.12804164   333.91746163
 C     16  15  13     1.396797528563   120.14782577   179.78841744
 C     17  16  15     1.393773695081   120.04223442     1.30586861
 C     18  17  16     1.394130464232   120.08800414     0.33473946
 C     19  18  17     1.396255244108   120.02303172   359.13846934
 H      3   2   1     1.095678957861   110.93345549    57.01982744
 H      3   2   1     1.095614324751   111.05739934   297.25522727
 H      3   2   1     1.095814869492   111.85523249   176.01294257
 H      5   4   2     0.977044663155   115.07910029     1.23231503
 H      8   7   2     1.089732531129   119.52661766     1.14967824
 H     10   9   8     1.088647649058   120.24709281   182.97826414
 H     11  10   9     1.088318882543   119.72022164   179.72150954
 H     12  11  10     1.088057986736   117.61650429   179.94279351
 H     16  15  13     1.085689326143   121.52492125   358.78648937
 H     17  16  15     1.087253180359   120.00091250   180.78858019
 H     18  17  16     1.087270226439   119.96518810   179.59528840
 H     19  18  17     1.087250043780   120.06447042   178.89036664
 H     20  19  18     1.088423338320   119.53918559   179.54067716

---------------------------
INTERNAL COORDINATES (A.U.)
---------------------------
 H      0   0   0     0.000000000000     0.00000000     0.00000000
 C      1   0   0     2.077681803651     0.00000000     0.00000000
 C      2   1   0     2.894587750319   106.67984515     0.00000000
 C      2   1   3     2.886007122564   105.27180997   115.23979866
 O      4   2   1     2.550139710030   116.82838877   130.26795364
 O      4   2   1     2.317757445922   122.52670460   309.11898999
 C      2   1   3     2.886817511863   105.82136200   238.29258365
 C      7   2   1     2.662448659463   119.13556427   323.82803282
 C      8   7   2     2.652287191824   120.81375995   179.86135543
 C      9   8   7     2.638489677490   119.83743196   357.55962784
 C     10   9   8     2.631213337642   119.89810637     3.03528553
 C     11  10   9     2.639978304983   120.23154307   359.00646472
 C      9   8   7     2.807614512220   122.11059544   179.08649065
 O     13   9   8     2.323339028772   118.52392237   141.47909879
 C     13   9   8     2.812995400176   121.73326596   320.44761181
 C     15  13   9     2.646972240280   122.12804164   333.91746163
 C     16  15  13     2.639564793522   120.14782577   179.78841744
 C     17  16  15     2.633850576367   120.04223442     1.30586861
 C     18  17  16     2.634524772355   120.08800414     0.33473946
 C     19  18  17     2.638540024416   120.02303172   359.13846934
 H      3   2   1     2.070533161058   110.93345549    57.01982744
 H      3   2   1     2.070411022181   111.05739934   297.25522727
 H      3   2   1     2.070789996819   111.85523249   176.01294257
 H      5   4   2     1.846346833973   115.07910029     1.23231503
 H      8   7   2     2.059296043058   119.52661766     1.14967824
 H     10   9   8     2.057245913057   120.24709281   182.97826414
 H     11  10   9     2.056624634382   119.72022164   179.72150954
 H     12  11  10     2.056131612757   117.61650429   179.94279351
 H     16  15  13     2.051655492931   121.52492125   358.78648937
 H     17  16  15     2.054610749113   120.00091250   180.78858019
 H     18  17  16     2.054642961536   119.96518810   179.59528840
 H     19  18  17     2.054604821838   120.06447042   178.89036664
 H     20  19  18     2.056822027193   119.53918559   179.54067716

---------------------
BASIS SET INFORMATION
---------------------
There are 3 groups of distinct atoms

 Group   1 Type H   : 3s contracted to 1s pattern {3}
 Group   2 Type C   : 6s3p contracted to 2s1p pattern {33/3}
 Group   3 Type O   : 6s3p contracted to 2s1p pattern {33/3}

Atom   0H    basis set group =>   1
Atom   1C    basis set group =>   2
Atom   2C    basis set group =>   2
Atom   3C    basis set group =>   2
Atom   4O    basis set group =>   3
Atom   5O    basis set group =>   3
Atom   6C    basis set group =>   2
Atom   7C    basis set group =>   2
Atom   8C    basis set group =>   2
Atom   9C    basis set group =>   2
Atom  10C    basis set group =>   2
Atom  11C    basis set group =>   2
Atom  12C    basis set group =>   2
Atom  13O    basis set group =>   3
Atom  14C    basis set group =>   2
Atom  15C    basis set group =>   2
Atom  16C    basis set group =>   2
Atom  17C    basis set group =>   2
Atom  18C    basis set group =>   2
Atom  19C    basis set group =>   2
Atom  20H    basis set group =>   1
Atom  21H    basis set group =>   1
Atom  22H    basis set group =>   1
Atom  23H    basis set group =>   1
Atom  24H    basis set group =>   1
Atom  25H    basis set group =>   1
Atom  26H    basis set group =>   1
Atom  27H    basis set group =>   1
Atom  28H    basis set group =>   1
Atom  29H    basis set group =>   1
Atom  30H    basis set group =>   1
Atom  31H    basis set group =>   1
Atom  32H    basis set group =>   1
---------------------------------
AUXILIARY/J BASIS SET INFORMATION
---------------------------------
There are 3 groups of distinct atoms

 Group   1 Type H   : 5s2p1d contracted to 3s1p1d pattern {311/2/1}
 Group   2 Type C   : 12s5p4d2f1g contracted to 6s4p3d1f1g pattern {711111/2111/211/2/1}
 Group   3 Type O   : 12s5p4d2f1g contracted to 6s4p3d1f1g pattern {711111/2111/211/2/1}

Atom   0H    basis set group =>   1
Atom   1C    basis set group =>   2
Atom   2C    basis set group =>   2
Atom   3C    basis set group =>   2
Atom   4O    basis set group =>   3
Atom   5O    basis set group =>   3
Atom   6C    basis set group =>   2
Atom   7C    basis set group =>   2
Atom   8C    basis set group =>   2
Atom   9C    basis set group =>   2
Atom  10C    basis set group =>   2
Atom  11C    basis set group =>   2
Atom  12C    basis set group =>   2
Atom  13O    basis set group =>   3
Atom  14C    basis set group =>   2
Atom  15C    basis set group =>   2
Atom  16C    basis set group =>   2
Atom  17C    basis set group =>   2
Atom  18C    basis set group =>   2
Atom  19C    basis set group =>   2
Atom  20H    basis set group =>   1
Atom  21H    basis set group =>   1
Atom  22H    basis set group =>   1
Atom  23H    basis set group =>   1
Atom  24H    basis set group =>   1
Atom  25H    basis set group =>   1
Atom  26H    basis set group =>   1
Atom  27H    basis set group =>   1
Atom  28H    basis set group =>   1
Atom  29H    basis set group =>   1
Atom  30H    basis set group =>   1
Atom  31H    basis set group =>   1
Atom  32H    basis set group =>   1
------------------------------------------------------------------------------
                           ORCA GTO INTEGRAL CALCULATION
                           -- RI-GTO INTEGRALS CHOSEN --
------------------------------------------------------------------------------
------------------------------------------------------------------------------
                   ___                                                        
                  /   \      - P O W E R E D   B Y -                         
                 /     \                                                     
                 |  |  |   _    _      __       _____    __    __             
                 |  |  |  | |  | |    /  \     |  _  \  |  |  /  |          
                  \  \/   | |  | |   /    \    | | | |  |  | /  /          
                 / \  \   | |__| |  /  /\  \   | |_| |  |  |/  /          
                |  |  |   |  __  | /  /__\  \  |    /   |      \           
                |  |  |   | |  | | |   __   |  |    \   |  |\   \          
                \     /   | |  | | |  |  |  |  | |\  \  |  | \   \       
                 \___/    |_|  |_| |__|  |__|  |_| \__\ |__|  \__/        
                                                                              
                      - O R C A' S   B I G   F R I E N D -                    
                                      &                                       
                       - I N T E G R A L  F E E D E R -                       
                                                                              
 v1 FN, 2020, v2 2021                                                         
------------------------------------------------------------------------------


Reading SHARK input file Dexketoprofen\Dexketoprofen_B3LYP_STO-3G\Dexketoprofen_B3LYP_STO-3G.orcainp.SHARKINP.tmp ... ok
----------------------
SHARK INTEGRAL PACKAGE
----------------------

Number of atoms                             ...     33
Number of basis functions                   ...    109
Number of shells                            ...     71
Maximum angular momentum                    ...      1
Integral batch strategy                     ... SHARK/LIBINT Hybrid
RI-J (if used) integral strategy            ... SPLIT-RIJ (Revised 2003 algorithm where possible)
Printlevel                                  ...      1
Contraction scheme used                     ... SEGMENTED contraction
Coulomb Range Separation                    ... NOT USED
Exchange Range Separation                   ... NOT USED
Finite Nucleus Model                        ... NOT USED
Auxiliary Coulomb fitting basis             ... AVAILABLE
   # of basis functions in Aux-J            ...   1085
   # of shells in Aux-J                     ...    355
   Maximum angular momentum in Aux-J        ...      4
Auxiliary J/K fitting basis                 ... NOT available
Auxiliary Correlation fitting basis         ... NOT available
Auxiliary 'external' fitting basis          ... NOT available
Integral threshold                          ...     2.500000e-11
Primitive cut-off                           ...     2.500000e-12
Primitive pair pre-selection threshold      ...     2.500000e-12

Calculating pre-screening integrals         ... done (  0.0 sec) Dimension = 71
Organizing shell pair data                  ... done (  0.0 sec)
Shell pair information
Total number of shell pairs                 ...      2556
Shell pairs after pre-screening             ...      2074
Total number of primitive shell pairs       ...     23004
Primitive shell pairs kept                  ...     11557
          la=0 lb=0:   1025 shell pairs
          la=1 lb=0:    865 shell pairs
          la=1 lb=1:    184 shell pairs

Calculating one electron integrals          ... done (  0.0 sec)
Calculating RI/J V-Matrix + Cholesky decomp.... done (  0.0 sec)
Calculating Nuclear repulsion               ... done (  0.0 sec) ENN=   1320.896628790247 Eh

SHARK setup successfully completed in   0.1 seconds

Maximum memory used throughout the entire GTOINT-calculation: 24.2 MB
-------------------------------------------------------------------------------
                                 ORCA SCF
-------------------------------------------------------------------------------

------------
SCF SETTINGS
------------
Hamiltonian:
 Density Functional     Method          .... DFT(GTOs)
 Exchange Functional    Exchange        .... B88
   X-Alpha parameter    XAlpha          ....  0.666667
   Becke's b parameter  XBeta           ....  0.004200
 Correlation Functional Correlation     .... LYP
 LDA part of GGA corr.  LDAOpt          .... VWN-5
 Gradients option       PostSCFGGA      .... off
 Hybrid DFT is turned on
   Fraction HF Exchange ScalHFX         ....  0.200000
   Scaling of DF-GGA-X  ScalDFX         ....  0.720000
   Scaling of DF-GGA-C  ScalDFC         ....  0.810000
   Scaling of DF-LDA-C  ScalLDAC        ....  1.000000
   Perturbative correction              ....  0.000000
   Density functional embedding theory  .... OFF
   NL short-range parameter             ....  4.800000
 RI-approximation to the Coulomb term is turned on
   Number of AuxJ basis functions       .... 1085
   RIJ-COSX (HFX calculated with COS-X)).... on


General Settings:
 Integral files         IntName         .... Dexketoprofen\Dexketoprofen_B3LYP_STO-3G\Dexketoprofen_B3LYP_STO-3G.orcainp
 Hartree-Fock type      HFTyp           .... RHF
 Total Charge           Charge          ....    0
 Multiplicity           Mult            ....    1
 Number of Electrons    NEL             ....  134
 Basis Dimension        Dim             ....  109
 Nuclear Repulsion      ENuc            ....   1320.8966287902 Eh

Convergence Acceleration:
 DIIS                   CNVDIIS         .... on
   Start iteration      DIISMaxIt       ....    12
   Startup error        DIISStart       ....  0.200000
   # of expansion vecs  DIISMaxEq       ....     5
   Bias factor          DIISBfac        ....   1.050
   Max. coefficient     DIISMaxC        ....  10.000
 Trust-Rad. Augm. Hess. CNVTRAH         .... auto
   Auto Start mean grad. ratio tolernc. ....  1.125000
   Auto Start start iteration           ....    20
   Auto Start num. interpolation iter.  ....    10
   Max. Number of Micro iterations      ....    16
   Max. Number of Macro iterations      .... Maxiter - #DIIS iter
   Number of Davidson start vectors     ....     2
   Converg. threshold I  (grad. norm)   ....   1.000e-05
   Converg. threshold II (energy diff.) ....   1.000e-08
   Grad. Scal. Fac. for Micro threshold ....   0.100
   Minimum threshold for Micro iter.    ....   0.010
   NR start threshold (gradient norm)   ....   0.001
   Initial trust radius                 ....   0.400
   Minimum AH scaling param. (alpha)    ....   1.000
   Maximum AH scaling param. (alpha)    .... 1000.000
   Orbital update algorithm             .... Taylor
   White noise on init. David. guess    .... on
   Maximum white noise                  ....   0.010
   Quad. conv. algorithm                .... NR
 SOSCF                  CNVSOSCF        .... on
   Start iteration      SOSCFMaxIt      ....   150
   Startup grad/error   SOSCFStart      ....  0.003300
 Level Shifting         CNVShift        .... on
   Level shift para.    LevelShift      ....    0.2500
   Turn off err/grad.   ShiftErr        ....    0.0010
 Zerner damping         CNVZerner       .... off
 Static damping         CNVDamp         .... on
   Fraction old density DampFac         ....    0.7000
   Max. Damping (<1)    DampMax         ....    0.9800
   Min. Damping (>=0)   DampMin         ....    0.0000
   Turn off err/grad.   DampErr         ....    0.1000
 Fernandez-Rico         CNVRico         .... off

SCF Procedure:
 Maximum # iterations   MaxIter         ....   125
 SCF integral mode      SCFMode         .... Direct
   Integral package                     .... SHARK and LIBINT hybrid scheme
 Reset frequency        DirectResetFreq ....    20
 Integral Threshold     Thresh          ....  2.500e-11 Eh
 Primitive CutOff       TCut            ....  2.500e-12 Eh

Convergence Tolerance:
 Convergence Check Mode ConvCheckMode   .... Total+1el-Energy
 Convergence forced     ConvForced      .... 0
 Energy Change          TolE            ....  1.000e-08 Eh
 1-El. energy change                    ....  1.000e-05 Eh
 Orbital Gradient       TolG            ....  1.000e-05
 Orbital Rotation angle TolX            ....  1.000e-05
 DIIS Error             TolErr          ....  5.000e-07


Diagonalization of the overlap matrix:
Smallest eigenvalue                        ... 1.722e-01
Time for diagonalization                   ...    0.001 sec
Threshold for overlap eigenvalues          ... 1.000e-08
Number of eigenvalues below threshold      ... 0
Time for construction of square roots      ...    0.002 sec
Total time needed                          ...    0.003 sec

Time for model grid setup =    0.222 sec

------------------------------
INITIAL GUESS: MODEL POTENTIAL
------------------------------
Loading Hartree-Fock densities                     ... done
Calculating cut-offs                               ... done
Initializing the effective Hamiltonian             ... done
Setting up the integral package (SHARK)            ... done
Starting the Coulomb interaction                   ... done (   0.1 sec)
Reading the grid                                   ... done
Mapping shells                                     ... done
Starting the XC term evaluation                    ... done (   0.1 sec)
  promolecular density results
     # of electrons  =    133.989004547
     EX              =   -110.980399423
     EC              =     -4.557297292
     EX+EC           =   -115.537696715
Transforming the Hamiltonian                       ... done (   0.0 sec)
Diagonalizing the Hamiltonian                      ... done (   0.0 sec)
Back transforming the eigenvectors                 ... done (   0.0 sec)
Now organizing SCF variables                       ... done
                      ------------------
                      INITIAL GUESS DONE (   0.4 sec)
                      ------------------
-------------------
DFT GRID GENERATION
-------------------

General Integration Accuracy     IntAcc      ... 4.388
Radial Grid Type                 RadialGrid  ... OptM3 with GC (2021)
Angular Grid (max. ang.)         AngularGrid ... 4 (Lebedev-302)
Angular grid pruning method      GridPruning ... 4 (adaptive)
Weight generation scheme         WeightScheme... Becke
Basis function cutoff            BFCut       ... 1.0000e-11
Integration weight cutoff        WCut        ... 1.0000e-14
Angular grids for H and He will be reduced by one unit
Partially contracted basis set               ... off
Rotationally invariant grid construction     ... off

Total number of grid points                  ...   158428
Total number of batches                      ...     2491
Average number of points per batch           ...       63
Average number of grid points per atom       ...     4801
Time for grid setup =    0.864 sec

--------------------
COSX GRID GENERATION
--------------------

GRIDX 1
-------
General Integration Accuracy     IntAcc      ... 3.816
Radial Grid Type                 RadialGrid  ... OptM3 with GC (2021)
Angular Grid (max. ang.)         AngularGrid ... 1 (Lebedev-50)
Angular grid pruning method      GridPruning ... 4 (adaptive)
Weight generation scheme         WeightScheme... Becke
Basis function cutoff            BFCut       ... 1.0000e-11
Integration weight cutoff        WCut        ... 1.0000e-14
Angular grids for H and He will be reduced by one unit
Partially contracted basis set               ... on
Rotationally invariant grid construction     ... off

Total number of grid points                  ...    20141
Total number of batches                      ...      328
Average number of points per batch           ...       61
Average number of grid points per atom       ...      610
UseSFitting                                  ... on

GRIDX 2
-------
General Integration Accuracy     IntAcc      ... 4.020
Radial Grid Type                 RadialGrid  ... OptM3 with GC (2021)
Angular Grid (max. ang.)         AngularGrid ... 2 (Lebedev-110)
Angular grid pruning method      GridPruning ... 4 (adaptive)
Weight generation scheme         WeightScheme... Becke
Basis function cutoff            BFCut       ... 1.0000e-11
Integration weight cutoff        WCut        ... 1.0000e-14
Angular grids for H and He will be reduced by one unit
Partially contracted basis set               ... on
Rotationally invariant grid construction     ... off

Total number of grid points                  ...    43952
Total number of batches                      ...      700
Average number of points per batch           ...       62
Average number of grid points per atom       ...     1332
UseSFitting                                  ... on

GRIDX 3
-------
General Integration Accuracy     IntAcc      ... 4.338
Radial Grid Type                 RadialGrid  ... OptM3 with GC (2021)
Angular Grid (max. ang.)         AngularGrid ... 3 (Lebedev-194)
Angular grid pruning method      GridPruning ... 4 (adaptive)
Weight generation scheme         WeightScheme... Becke
Basis function cutoff            BFCut       ... 1.0000e-11
Integration weight cutoff        WCut        ... 1.0000e-14
Angular grids for H and He will be reduced by one unit
Partially contracted basis set               ... on
Rotationally invariant grid construction     ... off

Total number of grid points                  ...    96220
Total number of batches                      ...     1519
Average number of points per batch           ...       63
Average number of grid points per atom       ...     2916
UseSFitting                                  ... on

Time for X-Grid setup             =    0.918 sec


--------------------
CPCM SOLVATION MODEL
--------------------
CPCM parameters:
  Epsilon                                         ...      80.4000
  Refrac                                          ...       1.3300
  Rsolv                                           ...       1.3000
  Surface type                                    ... GAUSSIAN VDW
  Epsilon function type                           ...         CPCM
Radii:
 Radius for H  used is    2.4944 Bohr (=   1.3200 Ang.)
 Radius for C  used is    3.8550 Bohr (=   2.0400 Ang.)
 Radius for O  used is    3.4469 Bohr (=   1.8240 Ang.)
Calculating surface                               ...        done! (  0.0s)
GEPOL surface points                              ...         1779
GEPOL Volume                                      ...    2082.5146
GEPOL Surface-area                                ...    1081.7439
Calculating surface distance matrix               ...        done! (  0.0s)
Performing Cholesky decomposition & store         ...        done! (  0.1s)
Overall time for CPCM initialization              ...                 0.1s
--------------
SCF ITERATIONS
--------------
ITER       Energy         Delta-E        Max-DP      RMS-DP      [F,P]     Damp
               ***  Starting incremental Fock matrix formation  ***
  0   -832.4177363878   0.000000000000 0.11896688  0.00379737  0.1833452 0.7000
  1   -832.5010164445  -0.083280056699 0.08050836  0.00258451  0.0827216 0.7000
                               ***Turning on DIIS***
  2   -832.5319786983  -0.030962253854 0.10569597  0.00396786  0.0415501 0.0000
  3   -832.5821576829  -0.050178984558 0.06533073  0.00194733  0.0575584 0.0000
  4   -832.5937349802  -0.011577297303 0.01274254  0.00053166  0.0115897 0.0000
                      *** Initiating the SOSCF procedure ***
                           *** Shutting down DIIS ***
                      *** Re-Reading the Fockian *** 
                      *** Removing any level shift *** 
ITER      Energy       Delta-E        Grad      Rot      Max-DP    RMS-DP
  5   -832.59459121  -0.0008562253  0.000603  0.000603  0.002316  0.000106
               *** Restarting incremental Fock matrix formation ***
  6   -832.59459323  -0.0000020249  0.000305  0.001005  0.001612  0.000055
  7   -832.59459371  -0.0000004804  0.000571  0.000827  0.000977  0.000029
  8   -832.59459546  -0.0000017529  0.000152  0.000234  0.000583  0.000016
  9   -832.59459543   0.0000000310  0.000122  0.000104  0.000329  0.000008
 10   -832.59459564  -0.0000002064  0.000009  0.000047  0.000071  0.000003
 11   -832.59459564  -0.0000000050  0.000009  0.000017  0.000039  0.000001
 12   -832.59459565  -0.0000000019  0.000003  0.000007  0.000012  0.000001
                  ***Gradient check signals convergence***
              ***Rediagonalizing the Fockian in SOSCF/NRSCF***

               *****************************************************
               *                     SUCCESS                       *
               *           SCF CONVERGED AFTER  13 CYCLES          *
               *****************************************************

Old exchange energy                            =    -22.575581798 Eh
New exchange energy                            =    -22.575489484 Eh
Exchange energy change after final integration =      0.000092314 Eh
Total energy after final integration           =   -832.594503329 Eh
Final COS-X integration done in                =     5.167 sec

----------------
TOTAL SCF ENERGY
----------------

Total Energy       :         -832.59450333 Eh          -22656.04825 eV

Components:
Nuclear Repulsion  :         1320.89662879 Eh           35943.42460 eV
Electronic Energy  :        -2153.49113212 Eh          -58599.47284 eV
One Electron Energy:        -3760.25178271 Eh         -102321.65294 eV
Two Electron Energy:         1606.76065059 Eh           43722.18010 eV
Max COSX asymmetry :            0.00000183 Eh               0.00005 eV
CPCM Dielectric    :           -0.01149769 Eh              -0.31287 eV

Virial components:
Potential Energy   :        -1652.55947844 Eh          -44968.42956 eV
Kinetic Energy     :          819.96497511 Eh           22312.38131 eV
Virial Ratio       :            2.01540252


DFT components:
N(Alpha)           :       66.999939599404 electrons
N(Beta)            :       66.999939599404 electrons
N(Total)           :      133.999879198809 electrons
E(X)               :      -89.443359476758 Eh       
E(C)               :       -5.366436386766 Eh       
E(XC)              :      -94.809795863523 Eh       
DFET-embed. en.    :        0.000000000000 Eh       
CPCM Solvation Model Properties:
Surface-charge          :           -0.01111034
Charge-correction       :            0.00002892 Eh               0.00079 eV
Free-energy (cav+disp)  :  This term is not implemented in the current solvation scheme

---------------
SCF CONVERGENCE
---------------

  Last Energy change         ...    3.1758e-09  Tolerance :   1.0000e-08
  Last MAX-Density change    ...    5.7732e-15  Tolerance :   1.0000e-07
  Last RMS-Density change    ...    1.6042e-16  Tolerance :   5.0000e-09
  Last Orbital Gradient      ...    1.5796e-06  Tolerance :   1.0000e-05
  Last Orbital Rotation      ...    2.5176e-06  Tolerance :   1.0000e-05

             **** THE GBW FILE WAS UPDATED (Dexketoprofen\Dexketoprofen_B3LYP_STO-3G\Dexketoprofen_B3LYP_STO-3G.orcainp.gbw) ****
             **** DENSITY Dexketoprofen\Dexketoprofen_B3LYP_STO-3G\Dexketoprofen_B3LYP_STO-3G.orcainp.scfp WAS UPDATED ****
             **** ENERGY FILE WAS UPDATED (Dexketoprofen\Dexketoprofen_B3LYP_STO-3G\Dexketoprofen_B3LYP_STO-3G.orcainp.en.tmp) ****
             **** THE GBW FILE WAS UPDATED (Dexketoprofen\Dexketoprofen_B3LYP_STO-3G\Dexketoprofen_B3LYP_STO-3G.orcainp.gbw) ****
             **** DENSITY Dexketoprofen\Dexketoprofen_B3LYP_STO-3G\Dexketoprofen_B3LYP_STO-3G.orcainp.scfp WAS UPDATED ****
----------------
ORBITAL ENERGIES
----------------

  NO   OCC          E(Eh)            E(eV) 
   0   2.0000     -18.928175      -515.0618 
   1   2.0000     -18.884181      -513.8647 
   2   2.0000     -18.854513      -513.0574 
   3   2.0000     -10.111482      -275.1474 
   4   2.0000     -10.085190      -274.4320 
   5   2.0000     -10.034254      -273.0459 
   6   2.0000     -10.021163      -272.6897 
   7   2.0000     -10.017933      -272.6018 
   8   2.0000     -10.017332      -272.5855 
   9   2.0000     -10.011070      -272.4151 
  10   2.0000     -10.010875      -272.4097 
  11   2.0000     -10.010809      -272.4080 
  12   2.0000     -10.010740      -272.4061 
  13   2.0000     -10.010389      -272.3965 
  14   2.0000     -10.009936      -272.3842 
  15   2.0000     -10.009150      -272.3628 
  16   2.0000     -10.008516      -272.3456 
  17   2.0000     -10.008216      -272.3374 
  18   2.0000     -10.007753      -272.3248 
  19   2.0000      -1.031101       -28.0577 
  20   2.0000      -0.991741       -26.9866 
  21   2.0000      -0.946799       -25.7637 
  22   2.0000      -0.822326       -22.3766 
  23   2.0000      -0.814472       -22.1629 
  24   2.0000      -0.760867       -20.7043 
  25   2.0000      -0.727030       -19.7835 
  26   2.0000      -0.707994       -19.2655 
  27   2.0000      -0.703123       -19.1329 
  28   2.0000      -0.692574       -18.8459 
  29   2.0000      -0.619031       -16.8447 
  30   2.0000      -0.600027       -16.3276 
  31   2.0000      -0.572711       -15.5843 
  32   2.0000      -0.566656       -15.4195 
  33   2.0000      -0.555426       -15.1139 
  34   2.0000      -0.536464       -14.5979 
  35   2.0000      -0.506714       -13.7884 
  36   2.0000      -0.487094       -13.2545 
  37   2.0000      -0.458439       -12.4748 
  38   2.0000      -0.452822       -12.3219 
  39   2.0000      -0.427754       -11.6398 
  40   2.0000      -0.426562       -11.6073 
  41   2.0000      -0.406900       -11.0723 
  42   2.0000      -0.403496       -10.9797 
  43   2.0000      -0.391088       -10.6420 
  44   2.0000      -0.383870       -10.4456 
  45   2.0000      -0.381780       -10.3888 
  46   2.0000      -0.376385       -10.2419 
  47   2.0000      -0.347101        -9.4451 
  48   2.0000      -0.344606        -9.3772 
  49   2.0000      -0.340360        -9.2617 
  50   2.0000      -0.336753        -9.1635 
  51   2.0000      -0.326305        -8.8792 
  52   2.0000      -0.319234        -8.6868 
  53   2.0000      -0.315955        -8.5976 
  54   2.0000      -0.303854        -8.2683 
  55   2.0000      -0.302473        -8.2307 
  56   2.0000      -0.293792        -7.9945 
  57   2.0000      -0.288291        -7.8448 
  58   2.0000      -0.281367        -7.6564 
  59   2.0000      -0.249509        -6.7895 
  60   2.0000      -0.203377        -5.5342 
  61   2.0000      -0.202682        -5.5153 
  62   2.0000      -0.199820        -5.4374 
  63   2.0000      -0.191834        -5.2201 
  64   2.0000      -0.182082        -4.9547 
  65   2.0000      -0.144905        -3.9431 
  66   2.0000      -0.143561        -3.9065 
  67   0.0000       0.031811         0.8656 
  68   0.0000       0.079418         2.1611 
  69   0.0000       0.080743         2.1971 
  70   0.0000       0.087530         2.3818 
  71   0.0000       0.121854         3.3158 
  72   0.0000       0.148327         4.0362 
  73   0.0000       0.240413         6.5420 
  74   0.0000       0.268462         7.3052 
  75   0.0000       0.318827         8.6757 
  76   0.0000       0.325132         8.8473 
  77   0.0000       0.344555         9.3758 
  78   0.0000       0.368244        10.0204 
  79   0.0000       0.374462        10.1896 
  80   0.0000       0.385828        10.4989 
  81   0.0000       0.398632        10.8473 
  82   0.0000       0.409250        11.1363 
  83   0.0000       0.418848        11.3974 
  84   0.0000       0.424972        11.5641 
  85   0.0000       0.442309        12.0358 
  86   0.0000       0.449562        12.2332 
  87   0.0000       0.461673        12.5628 
  88   0.0000       0.469012        12.7625 
  89   0.0000       0.469903        12.7867 
  90   0.0000       0.470290        12.7972 
  91   0.0000       0.492673        13.4063 
  92   0.0000       0.501783        13.6542 
  93   0.0000       0.506007        13.7692 
  94   0.0000       0.544335        14.8121 
  95   0.0000       0.563822        15.3424 
  96   0.0000       0.582207        15.8427 
  97   0.0000       0.582746        15.8573 
  98   0.0000       0.590183        16.0597 
  99   0.0000       0.591728        16.1017 
 100   0.0000       0.604264        16.4429 
 101   0.0000       0.610178        16.6038 
 102   0.0000       0.643554        17.5120 
 103   0.0000       0.671490        18.2722 
 104   0.0000       0.685659        18.6577 
 105   0.0000       0.763446        20.7744 
 106   0.0000       0.777822        21.1656 
 107   0.0000       0.806568        21.9478 
 108   0.0000       0.814011        22.1504 

                    ********************************
                    * MULLIKEN POPULATION ANALYSIS *
                    ********************************

-----------------------
MULLIKEN ATOMIC CHARGES
-----------------------
   0 H :    0.098312
   1 C :   -0.089481
   2 C :   -0.222397
   3 C :    0.242187
   4 O :   -0.262723
   5 O :   -0.249403
   6 C :   -0.015769
   7 C :   -0.081684
   8 C :   -0.024709
   9 C :   -0.078821
  10 C :   -0.082546
  11 C :   -0.084852
  12 C :    0.151696
  13 O :   -0.201422
  14 C :   -0.026407
  15 C :   -0.079857
  16 C :   -0.083253
  17 C :   -0.080285
  18 C :   -0.083735
  19 C :   -0.077005
  20 H :    0.084492
  21 H :    0.083538
  22 H :    0.080917
  23 H :    0.252387
  24 H :    0.092137
  25 H :    0.093207
  26 H :    0.091794
  27 H :    0.093082
  28 H :    0.093384
  29 H :    0.090996
  30 H :    0.091587
  31 H :    0.091040
  32 H :    0.093594
Sum of atomic charges:    0.0000000

--------------------------------
MULLIKEN REDUCED ORBITAL CHARGES
--------------------------------
  0 H s       :     0.901688  s :     0.901688
  1 C s       :     3.175104  s :     3.175104
      pz      :     0.954321  p :     2.914376
      px      :     1.010544
      py      :     0.949511
  2 C s       :     3.190937  s :     3.190937
      pz      :     1.024090  p :     3.031459
      px      :     1.037957
      py      :     0.969412
  3 C s       :     3.076812  s :     3.076812
      pz      :     0.915715  p :     2.681001
      px      :     0.849643
      py      :     0.915642
  4 O s       :     3.808835  s :     3.808835
      pz      :     1.487013  p :     4.453888
      px      :     1.419997
      py      :     1.546878
  5 O s       :     3.881579  s :     3.881579
      pz      :     1.370097  p :     4.367825
      px      :     1.707926
      py      :     1.289803
  6 C s       :     3.139250  s :     3.139250
      pz      :     0.952746  p :     2.876519
      px      :     0.985158
      py      :     0.938615
  7 C s       :     3.149931  s :     3.149931
      pz      :     0.989885  p :     2.931753
      px      :     0.996783
      py      :     0.945085
  8 C s       :     3.125051  s :     3.125051
      pz      :     0.963601  p :     2.899658
      px      :     0.994602
      py      :     0.941455
  9 C s       :     3.142661  s :     3.142661
      pz      :     0.966032  p :     2.936160
      px      :     0.987624
      py      :     0.982503
 10 C s       :     3.141182  s :     3.141182
      pz      :     0.993182  p :     2.941364
      px      :     0.995460
      py      :     0.952722
 11 C s       :     3.145562  s :     3.145562
      pz      :     0.959942  p :     2.939290
      px      :     0.985084
      py      :     0.994263
 12 C s       :     3.112039  s :     3.112039
      pz      :     0.899834  p :     2.736265
      px      :     0.927221
      py      :     0.909211
 13 O s       :     3.884508  s :     3.884508
      pz      :     1.554035  p :     4.316914
      px      :     1.158503
      py      :     1.604375
 14 C s       :     3.126064  s :     3.126064
      pz      :     0.943578  p :     2.900343
      px      :     0.984867
      py      :     0.971898
 15 C s       :     3.144632  s :     3.144632
      pz      :     0.958203  p :     2.935226
      px      :     0.984881
      py      :     0.992142
 16 C s       :     3.140887  s :     3.140887
      pz      :     0.972381  p :     2.942366
      px      :     0.993346
      py      :     0.976640
 17 C s       :     3.142400  s :     3.142400
      pz      :     0.994887  p :     2.937885
      px      :     0.971558
      py      :     0.971440
 18 C s       :     3.140705  s :     3.140705
      pz      :     0.959780  p :     2.943030
      px      :     0.988107
      py      :     0.995143
 19 C s       :     3.145053  s :     3.145053
      pz      :     0.975449  p :     2.931953
      px      :     0.992100
      py      :     0.964405
 20 H s       :     0.915508  s :     0.915508
 21 H s       :     0.916462  s :     0.916462
 22 H s       :     0.919083  s :     0.919083
 23 H s       :     0.747613  s :     0.747613
 24 H s       :     0.907863  s :     0.907863
 25 H s       :     0.906793  s :     0.906793
 26 H s       :     0.908206  s :     0.908206
 27 H s       :     0.906918  s :     0.906918
 28 H s       :     0.906616  s :     0.906616
 29 H s       :     0.909004  s :     0.909004
 30 H s       :     0.908413  s :     0.908413
 31 H s       :     0.908960  s :     0.908960
 32 H s       :     0.906406  s :     0.906406


                     *******************************
                     * LOEWDIN POPULATION ANALYSIS *
                     *******************************

----------------------
LOEWDIN ATOMIC CHARGES
----------------------
   0 H :    0.058082
   1 C :   -0.052526
   2 C :   -0.120020
   3 C :    0.157506
   4 O :   -0.151902
   5 O :   -0.199662
   6 C :   -0.008167
   7 C :   -0.048160
   8 C :   -0.028220
   9 C :   -0.041382
  10 C :   -0.044314
  11 C :   -0.048729
  12 C :    0.111495
  13 O :   -0.142716
  14 C :   -0.030382
  15 C :   -0.041731
  16 C :   -0.045236
  17 C :   -0.039620
  18 C :   -0.045477
  19 C :   -0.039204
  20 H :    0.048180
  21 H :    0.047281
  22 H :    0.045236
  23 H :    0.185313
  24 H :    0.052746
  25 H :    0.053319
  26 H :    0.052263
  27 H :    0.053759
  28 H :    0.053630
  29 H :    0.051548
  30 H :    0.051945
  31 H :    0.051588
  32 H :    0.053555

-------------------------------
LOEWDIN REDUCED ORBITAL CHARGES
-------------------------------
  0 H s       :     0.941918  s :     0.941918
  1 C s       :     3.033000  s :     3.033000
      pz      :     0.995552  p :     3.019526
      px      :     1.037686
      py      :     0.986288
  2 C s       :     3.011721  s :     3.011721
      pz      :     1.047210  p :     3.108299
      px      :     1.057659
      py      :     1.003430
  3 C s       :     3.040687  s :     3.040687
      pz      :     0.960276  p :     2.801807
      px      :     0.897330
      py      :     0.944202
  4 O s       :     3.660662  s :     3.660662
      pz      :     1.494527  p :     4.491241
      px      :     1.443479
      py      :     1.553234
  5 O s       :     3.768424  s :     3.768424
      pz      :     1.404010  p :     4.431239
      px      :     1.717165
      py      :     1.310064
  6 C s       :     3.034126  s :     3.034126
      pz      :     0.991919  p :     2.974041
      px      :     0.995451
      py      :     0.986671
  7 C s       :     3.029929  s :     3.029929
      pz      :     1.013994  p :     3.018231
      px      :     1.003399
      py      :     1.000838
  8 C s       :     3.024739  s :     3.024739
      pz      :     1.006790  p :     3.003481
      px      :     1.002873
      py      :     0.993818
  9 C s       :     3.020458  s :     3.020458
      pz      :     1.002985  p :     3.020925
      px      :     0.996534
      py      :     1.021406
 10 C s       :     3.018257  s :     3.018257
      pz      :     1.017487  p :     3.026057
      px      :     1.000755
      py      :     1.007815
 11 C s       :     3.024111  s :     3.024111
      pz      :     1.003404  p :     3.024618
      px      :     0.995358
      py      :     1.025856
 12 C s       :     3.043635  s :     3.043635
      pz      :     0.952824  p :     2.844870
      px      :     0.933652
      py      :     0.958394
 13 O s       :     3.770288  s :     3.770288
      pz      :     1.581491  p :     4.372427
      px      :     1.163230
      py      :     1.627707
 14 C s       :     3.025984  s :     3.025984
      pz      :     0.990999  p :     3.004398
      px      :     1.006926
      py      :     1.006472
 15 C s       :     3.022207  s :     3.022207
      pz      :     1.006079  p :     3.019524
      px      :     1.003258
      py      :     1.010187
 16 C s       :     3.018088  s :     3.018088
      pz      :     1.012119  p :     3.027148
      px      :     1.007969
      py      :     1.007060
 17 C s       :     3.018624  s :     3.018624
      pz      :     1.021086  p :     3.020996
      px      :     0.995737
      py      :     1.004174
 18 C s       :     3.017798  s :     3.017798
      pz      :     1.008100  p :     3.027679
      px      :     1.005624
      py      :     1.013955
 19 C s       :     3.022861  s :     3.022861
      pz      :     1.014315  p :     3.016343
      px      :     1.005877
      py      :     0.996151
 20 H s       :     0.951820  s :     0.951820
 21 H s       :     0.952719  s :     0.952719
 22 H s       :     0.954764  s :     0.954764
 23 H s       :     0.814687  s :     0.814687
 24 H s       :     0.947254  s :     0.947254
 25 H s       :     0.946681  s :     0.946681
 26 H s       :     0.947737  s :     0.947737
 27 H s       :     0.946241  s :     0.946241
 28 H s       :     0.946370  s :     0.946370
 29 H s       :     0.948452  s :     0.948452
 30 H s       :     0.948055  s :     0.948055
 31 H s       :     0.948412  s :     0.948412
 32 H s       :     0.946445  s :     0.946445


                      *****************************
                      * MAYER POPULATION ANALYSIS *
                      *****************************

  NA   - Mulliken gross atomic population
  ZA   - Total nuclear charge
  QA   - Mulliken gross atomic charge
  VA   - Mayer's total valence
  BVA  - Mayer's bonded valence
  FA   - Mayer's free valence

  ATOM       NA         ZA         QA         VA         BVA        FA
  0 H      0.9017     1.0000     0.0983     0.9903     0.9903     0.0000
  1 C      6.0895     6.0000    -0.0895     3.9611     3.9611    -0.0000
  2 C      6.2224     6.0000    -0.2224     3.9542     3.9542     0.0000
  3 C      5.7578     6.0000     0.2422     3.9157     3.9157    -0.0000
  4 O      8.2627     8.0000    -0.2627     2.2839     2.2839     0.0000
  5 O      8.2494     8.0000    -0.2494     2.2456     2.2456    -0.0000
  6 C      6.0158     6.0000    -0.0158     3.9727     3.9727    -0.0000
  7 C      6.0817     6.0000    -0.0817     3.9684     3.9684     0.0000
  8 C      6.0247     6.0000    -0.0247     3.9784     3.9784    -0.0000
  9 C      6.0788     6.0000    -0.0788     3.9710     3.9710    -0.0000
 10 C      6.0825     6.0000    -0.0825     3.9722     3.9722    -0.0000
 11 C      6.0849     6.0000    -0.0849     3.9706     3.9706     0.0000
 12 C      5.8483     6.0000     0.1517     3.9283     3.9283     0.0000
 13 O      8.2014     8.0000    -0.2014     2.1902     2.1902     0.0000
 14 C      6.0264     6.0000    -0.0264     3.9776     3.9776    -0.0000
 15 C      6.0799     6.0000    -0.0799     3.9707     3.9707    -0.0000
 16 C      6.0833     6.0000    -0.0833     3.9723     3.9723     0.0000
 17 C      6.0803     6.0000    -0.0803     3.9723     3.9723    -0.0000
 18 C      6.0837     6.0000    -0.0837     3.9724     3.9724     0.0000
 19 C      6.0770     6.0000    -0.0770     3.9702     3.9702     0.0000
 20 H      0.9155     1.0000     0.0845     0.9929     0.9929     0.0000
 21 H      0.9165     1.0000     0.0835     0.9930     0.9930     0.0000
 22 H      0.9191     1.0000     0.0809     0.9935     0.9935     0.0000
 23 H      0.7476     1.0000     0.2524     0.9363     0.9363     0.0000
 24 H      0.9079     1.0000     0.0921     0.9915     0.9915     0.0000
 25 H      0.9068     1.0000     0.0932     0.9913     0.9913     0.0000
 26 H      0.9082     1.0000     0.0918     0.9916     0.9916    -0.0000
 27 H      0.9069     1.0000     0.0931     0.9913     0.9913     0.0000
 28 H      0.9066     1.0000     0.0934     0.9913     0.9913     0.0000
 29 H      0.9090     1.0000     0.0910     0.9917     0.9917     0.0000
 30 H      0.9084     1.0000     0.0916     0.9916     0.9916     0.0000
 31 H      0.9090     1.0000     0.0910     0.9917     0.9917     0.0000
 32 H      0.9064     1.0000     0.0936     0.9912     0.9912     0.0000

  Mayer bond orders larger than 0.100000
B(  0-H ,  1-C ) :   0.9458 B(  1-C ,  2-C ) :   0.9854 B(  1-C ,  3-C ) :   0.8964 
B(  1-C ,  6-C ) :   0.9835 B(  2-C , 20-H ) :   0.9747 B(  2-C , 21-H ) :   0.9752 
B(  2-C , 22-H ) :   0.9754 B(  3-C ,  4-O ) :   1.0932 B(  3-C ,  5-O ) :   1.8692 
B(  4-O ,  5-O ) :   0.2402 B(  4-O , 23-H ) :   0.8787 B(  6-C ,  7-C ) :   1.4020 
B(  6-C ,  9-C ) :   0.1075 B(  6-C , 11-C ) :   1.3997 B(  7-C ,  8-C ) :   1.3966 
B(  7-C , 10-C ) :   0.1109 B(  7-C , 24-H ) :   0.9578 B(  8-C ,  9-C ) :   1.3872 
B(  8-C , 11-C ) :   0.1043 B(  8-C , 12-C ) :   0.9775 B(  9-C , 10-C ) :   1.4408 
B(  9-C , 25-H ) :   0.9587 B( 10-C , 11-C ) :   1.4281 B( 10-C , 26-H ) :   0.9617 
B( 11-C , 27-H ) :   0.9586 B( 12-C , 13-O ) :   1.8961 B( 12-C , 14-C ) :   0.9833 
B( 14-C , 15-C ) :   1.3881 B( 14-C , 17-C ) :   0.1061 B( 14-C , 19-C ) :   1.3862 
B( 15-C , 16-C ) :   1.4391 B( 15-C , 18-C ) :   0.1117 B( 15-C , 28-H ) :   0.9587 
B( 16-C , 17-C ) :   1.4296 B( 16-C , 19-C ) :   0.1126 B( 16-C , 29-H ) :   0.9621 
B( 17-C , 18-C ) :   1.4263 B( 17-C , 30-H ) :   0.9621 B( 18-C , 19-C ) :   1.4433 
B( 18-C , 31-H ) :   0.9620 B( 19-C , 32-H ) :   0.9581 

-------
TIMINGS
-------

Total SCF time: 0 days 0 hours 0 min 44 sec 

Total time                  ....      44.652 sec
Sum of individual times     ....      44.455 sec  ( 99.6%)

Fock matrix formation       ....      42.246 sec  ( 94.6%)
  Split-RI-J                ....       3.808 sec  (  9.0% of F)
  Chain of spheres X        ....      28.019 sec  ( 66.3% of F)
  XC integration            ....       4.410 sec  ( 10.4% of F)
    Basis function eval.    ....       2.018 sec  ( 45.8% of XC)
    Density eval.           ....       1.101 sec  ( 25.0% of XC)
    XC-Functional eval.     ....       0.527 sec  ( 12.0% of XC)
    XC-Potential eval.      ....       0.456 sec  ( 10.3% of XC)
Diagonalization             ....       0.007 sec  (  0.0%)
Density matrix formation    ....       0.000 sec  (  0.0%)
Population analysis         ....       0.004 sec  (  0.0%)
Initial guess               ....       0.183 sec  (  0.4%)
Orbital Transformation      ....       0.000 sec  (  0.0%)
Orbital Orthonormalization  ....       0.000 sec  (  0.0%)
DIIS solution               ....       0.005 sec  (  0.0%)
SOSCF solution              ....       0.006 sec  (  0.0%)
Grid generation             ....       2.004 sec  (  4.5%)

Maximum memory used throughout the entire SCF-calculation: 77.4 MB

-------------------------   --------------------
FINAL SINGLE POINT ENERGY      -832.594503328593
-------------------------   --------------------

------------------------------------------------------------------------------
                         ORCA SCF GRADIENT CALCULATION
------------------------------------------------------------------------------

 ... reading COSX grid (gridx3)
Gradient of the Kohn-Sham DFT energy:
Kohn-Sham wavefunction type      ... RKS
Hartree-Fock exchange scaling    ...    0.200
Number of operators              ...    1
Number of atoms                  ...   33
Basis set dimensions             ...  109
Integral neglect threshold       ... 2.5e-11
Integral primitive cutoff        ... 2.5e-12
SHARK Integral package           ... ON

Nuc. rep. gradient       (SHARK) ... done (  0.0 sec)
HCore & Overlap gradient (SHARK) ... done (  0.1 sec)
RI-J gradient            (SHARK) ... done (  0.8 sec)
COSX-gradient                    ... done (  6.0 sec)
Exchange-correlation gradient    ... done

------------------
CARTESIAN GRADIENT
------------------

   1   H   :    0.005762688    0.001699631   -0.003840255
   2   C   :    0.031826292    0.009579697    0.016982036
   3   C   :    0.002342100   -0.018794894    0.011924098
   4   C   :    0.008876543    0.009145868    0.021584249
   5   O   :   -0.059488716   -0.006056607   -0.056281675
   6   O   :    0.009172812   -0.029172138   -0.042649993
   7   C   :   -0.003007068    0.002694361   -0.000139255
   8   C   :   -0.001026124   -0.003552293   -0.000408980
   9   C   :   -0.004536778   -0.022044599   -0.011508481
  10   C   :   -0.004562802   -0.001063338    0.010894908
  11   C   :   -0.000984018   -0.000430258    0.004595239
  12   C   :   -0.002230575   -0.005148990    0.005061472
  13   C   :   -0.004007000   -0.009391417   -0.013281664
  14   O   :    0.021809090    0.048306174    0.050018435
  15   C   :   -0.003752296   -0.005002387   -0.014963511
  16   C   :   -0.004495245   -0.003407123   -0.008312137
[...]
  60   2.0000      -0.201100        -5.4722 
  61   2.0000      -0.197598        -5.3769 
  62   2.0000      -0.196896        -5.3578 
  63   2.0000      -0.188797        -5.1374 
  64   2.0000      -0.179845        -4.8938 
  65   2.0000      -0.148976        -4.0539 
  66   2.0000      -0.145617        -3.9624 
  67   0.0000       0.026995         0.7346 
  68   0.0000       0.076487         2.0813 
  69   0.0000       0.078986         2.1493 
  70   0.0000       0.085671         2.3312 
  71   0.0000       0.107596         2.9278 
  72   0.0000       0.136623         3.7177 
  73   0.0000       0.233707         6.3595 
  74   0.0000       0.255758         6.9595 
  75   0.0000       0.287410         7.8208 
  76   0.0000       0.302386         8.2283 
  77   0.0000       0.318798         8.6749 
  78   0.0000       0.334684         9.1072 
  79   0.0000       0.360855         9.8194 
  80   0.0000       0.367550        10.0015 
  81   0.0000       0.385226        10.4825 
  82   0.0000       0.391216        10.6455 
  83   0.0000       0.401764        10.9325 
  84   0.0000       0.417094        11.3497 
  85   0.0000       0.421106        11.4589 
  86   0.0000       0.431288        11.7359 
  87   0.0000       0.434346        11.8192 
  88   0.0000       0.438853        11.9418 
  89   0.0000       0.448359        12.2005 
  90   0.0000       0.450309        12.2535 
  91   0.0000       0.462053        12.5731 
  92   0.0000       0.474569        12.9137 
  93   0.0000       0.489285        13.3141 
  94   0.0000       0.499387        13.5890 
  95   0.0000       0.524416        14.2701 
  96   0.0000       0.557745        15.1770 
  97   0.0000       0.560212        15.2441 
  98   0.0000       0.578077        15.7303 
  99   0.0000       0.580727        15.8024 
 100   0.0000       0.586189        15.9510 
 101   0.0000       0.593889        16.1605 
 102   0.0000       0.611489        16.6395 
 103   0.0000       0.630998        17.1703 
 104   0.0000       0.646465        17.5912 
 105   0.0000       0.742172        20.1955 
 106   0.0000       0.749902        20.4059 
 107   0.0000       0.778216        21.1763 
 108   0.0000       0.786094        21.3907 

                    ********************************
                    * MULLIKEN POPULATION ANALYSIS *
                    ********************************

-----------------------
MULLIKEN ATOMIC CHARGES
-----------------------
   0 H :    0.093592
   1 C :   -0.077832
   2 C :   -0.217786
   3 C :    0.207899
   4 O :   -0.230356
   5 O :   -0.230590
   6 C :   -0.014665
   7 C :   -0.082619
   8 C :   -0.023687
   9 C :   -0.076818
  10 C :   -0.081229
  11 C :   -0.080078
  12 C :    0.143189
  13 O :   -0.190228
  14 C :   -0.024694
  15 C :   -0.079812
  16 C :   -0.082052
  17 C :   -0.077944
  18 C :   -0.082511
  19 C :   -0.077530
  20 H :    0.084351
  21 H :    0.082857
  22 H :    0.081981
  23 H :    0.218456
  24 H :    0.092210
  25 H :    0.092019
  26 H :    0.091607
  27 H :    0.091153
  28 H :    0.091181
  29 H :    0.089654
  30 H :    0.090089
  31 H :    0.089750
  32 H :    0.090443
Sum of atomic charges:   -0.0000000

--------------------------------
MULLIKEN REDUCED ORBITAL CHARGES
--------------------------------
  0 H s       :     0.906408  s :     0.906408
  1 C s       :     3.200898  s :     3.200898
      pz      :     0.976036  p :     2.876934
      px      :     0.949758
      py      :     0.951139
  2 C s       :     3.198422  s :     3.198422
      pz      :     1.027378  p :     3.019364
      px      :     0.993363
      py      :     0.998624
  3 C s       :     3.143837  s :     3.143837
      pz      :     0.951438  p :     2.648264
      px      :     0.877833
      py      :     0.818992
  4 O s       :     3.861822  s :     3.861822
      pz      :     1.746255  p :     4.368534
      px      :     1.467065
      py      :     1.155213
  5 O s       :     3.889381  s :     3.889381
      pz      :     1.321099  p :     4.341209
      px      :     1.755208
      py      :     1.264902
  6 C s       :     3.149699  s :     3.149699
      pz      :     0.944733  p :     2.864966
      px      :     0.988009
      py      :     0.932223
  7 C s       :     3.158273  s :     3.158273
      pz      :     0.988800  p :     2.924346
      px      :     0.994172
      py      :     0.941374
  8 C s       :     3.150567  s :     3.150567
      pz      :     0.953831  p :     2.873119
      px      :     0.991442
      py      :     0.927846
  9 C s       :     3.155158  s :     3.155158
      pz      :     0.963028  p :     2.921660
      px      :     0.985865
      py      :     0.972766
 10 C s       :     3.150661  s :     3.150661
      pz      :     0.988943  p :     2.930569
      px      :     0.994851
      py      :     0.946775
 11 C s       :     3.155423  s :     3.155423
      pz      :     0.952993  p :     2.924655
      px      :     0.983075
      py      :     0.988586
 12 C s       :     3.158316  s :     3.158316
      pz      :     0.885127  p :     2.698495
      px      :     0.916213
      py      :     0.897155
 13 O s       :     3.894707  s :     3.894707
      pz      :     1.538936  p :     4.295521
      px      :     1.172157
      py      :     1.584428
 14 C s       :     3.150266  s :     3.150266
      pz      :     0.927938  p :     2.874427
      px      :     0.977743
      py      :     0.968746
 15 C s       :     3.155276  s :     3.155276
      pz      :     0.950748  p :     2.924537
      px      :     0.984488
      py      :     0.989301
 16 C s       :     3.150931  s :     3.150931
      pz      :     0.967452  p :     2.931120
      px      :     0.988945
      py      :     0.974723
 17 C s       :     3.154149  s :     3.154149
      pz      :     0.987583  p :     2.923795
      px      :     0.966872
      py      :     0.969340
 18 C s       :     3.150942  s :     3.150942
      pz      :     0.951574  p :     2.931569
      px      :     0.987746
      py      :     0.992249
 19 C s       :     3.155309  s :     3.155309
      pz      :     0.972115  p :     2.922221
      px      :     0.988393
      py      :     0.961713
 20 H s       :     0.915649  s :     0.915649
 21 H s       :     0.917143  s :     0.917143
 22 H s       :     0.918019  s :     0.918019
 23 H s       :     0.781544  s :     0.781544
 24 H s       :     0.907790  s :     0.907790
 25 H s       :     0.907981  s :     0.907981
 26 H s       :     0.908393  s :     0.908393
 27 H s       :     0.908847  s :     0.908847
 28 H s       :     0.908819  s :     0.908819
 29 H s       :     0.910346  s :     0.910346
 30 H s       :     0.909911  s :     0.909911
 31 H s       :     0.910250  s :     0.910250
 32 H s       :     0.909557  s :     0.909557


                     *******************************
                     * LOEWDIN POPULATION ANALYSIS *
                     *******************************

----------------------
LOEWDIN ATOMIC CHARGES
----------------------
   0 H :    0.053848
   1 C :   -0.040257
   2 C :   -0.116862
   3 C :    0.135663
   4 O :   -0.145022
   5 O :   -0.180797
   6 C :   -0.007850
   7 C :   -0.049091
   8 C :   -0.027314
   9 C :   -0.039704
  10 C :   -0.043497
  11 C :   -0.044097
  12 C :    0.107805
  13 O :   -0.138048
  14 C :   -0.028581
  15 C :   -0.042578
  16 C :   -0.044923
  17 C :   -0.038585
  18 C :   -0.045037
  19 C :   -0.040473
  20 H :    0.048439
  21 H :    0.047119
  22 H :    0.046374
  23 H :    0.163763
  24 H :    0.053592
  25 H :    0.052884
  26 H :    0.052711
  27 H :    0.052457
  28 H :    0.052663
  29 H :    0.051141
  30 H :    0.051402
  31 H :    0.051233
  32 H :    0.051621

-------------------------------
LOEWDIN REDUCED ORBITAL CHARGES
-------------------------------
  0 H s       :     0.946152  s :     0.946152
  1 C s       :     3.062501  s :     3.062501
      pz      :     1.002927  p :     2.977757
      px      :     0.986899
      py      :     0.987930
  2 C s       :     3.020936  s :     3.020936
      pz      :     1.049125  p :     3.095927
      px      :     1.021433
      py      :     1.025369
  3 C s       :     3.103741  s :     3.103741
      pz      :     0.956440  p :     2.760596
      px      :     0.914102
      py      :     0.890055
  4 O s       :     3.739847  s :     3.739847
      pz      :     1.747289  p :     4.405175
      px      :     1.484793
      py      :     1.173093
  5 O s       :     3.783616  s :     3.783616
      pz      :     1.323033  p :     4.397181
      px      :     1.759939
      py      :     1.314210
  6 C s       :     3.045901  s :     3.045901
      pz      :     0.985110  p :     2.961949
      px      :     0.996308
      py      :     0.980531
  7 C s       :     3.038891  s :     3.038891
      pz      :     1.013719  p :     3.010200
      px      :     0.999938
      py      :     0.996543
  8 C s       :     3.051444  s :     3.051444
      pz      :     0.998202  p :     2.975870
      px      :     0.999433
      py      :     0.978235
  9 C s       :     3.034033  s :     3.034033
      pz      :     0.999581  p :     3.005671
      px      :     0.993569
      py      :     1.012521
 10 C s       :     3.028608  s :     3.028608
      pz      :     1.014159  p :     3.014889
      px      :     0.999663
      py      :     1.001066
 11 C s       :     3.034729  s :     3.034729
      pz      :     0.998401  p :     3.009367
      px      :     0.992127
      py      :     1.018839
 12 C s       :     3.089955  s :     3.089955
      pz      :     0.938111  p :     2.802240
      px      :     0.920206
      py      :     0.943922
 13 O s       :     3.791973  s :     3.791973
      pz      :     1.565860  p :     4.346075
      px      :     1.174153
      py      :     1.606063
 14 C s       :     3.051337  s :     3.051337
      pz      :     0.975897  p :     2.977244
      px      :     1.001461
      py      :     0.999886
 15 C s       :     3.034025  s :     3.034025
      pz      :     1.000242  p :     3.008553
      px      :     1.002513
      py      :     1.005797
 16 C s       :     3.029236  s :     3.029236
      pz      :     1.007328  p :     3.015687
      px      :     1.005864
      py      :     1.002495
 17 C s       :     3.031689  s :     3.031689
      pz      :     1.015520  p :     3.006896
      px      :     0.993295
      py      :     0.998081
 18 C s       :     3.029059  s :     3.029059
      pz      :     1.002080  p :     3.015978
      px      :     1.004819
      py      :     1.009078
 19 C s       :     3.034267  s :     3.034267
      pz      :     1.010728  p :     3.006206
      px      :     1.004721
      py      :     0.990756
 20 H s       :     0.951561  s :     0.951561
 21 H s       :     0.952881  s :     0.952881
 22 H s       :     0.953626  s :     0.953626
 23 H s       :     0.836237  s :     0.836237
 24 H s       :     0.946408  s :     0.946408
 25 H s       :     0.947116  s :     0.947116
 26 H s       :     0.947289  s :     0.947289
 27 H s       :     0.947543  s :     0.947543
 28 H s       :     0.947337  s :     0.947337
 29 H s       :     0.948859  s :     0.948859
 30 H s       :     0.948598  s :     0.948598
 31 H s       :     0.948767  s :     0.948767
 32 H s       :     0.948379  s :     0.948379


                      *****************************
                      * MAYER POPULATION ANALYSIS *
                      *****************************

  NA   - Mulliken gross atomic population
  ZA   - Total nuclear charge
  QA   - Mulliken gross atomic charge
  VA   - Mayer's total valence
  BVA  - Mayer's bonded valence
  FA   - Mayer's free valence

  ATOM       NA         ZA         QA         VA         BVA        FA
  0 H      0.9064     1.0000     0.0936     0.9912     0.9912     0.0000
  1 C      6.0778     6.0000    -0.0778     3.9491     3.9491     0.0000
  2 C      6.2178     6.0000    -0.2178     3.9517     3.9517     0.0000
  3 C      5.7921     6.0000     0.2079     3.8958     3.8958    -0.0000
  4 O      8.2304     8.0000    -0.2304     2.2742     2.2742     0.0000
  5 O      8.2306     8.0000    -0.2306     2.2543     2.2543    -0.0000
  6 C      6.0147     6.0000    -0.0147     3.9682     3.9682     0.0000
  7 C      6.0826     6.0000    -0.0826     3.9654     3.9654    -0.0000
  8 C      6.0237     6.0000    -0.0237     3.9681     3.9681     0.0000
  9 C      6.0768     6.0000    -0.0768     3.9668     3.9668    -0.0000
 10 C      6.0812     6.0000    -0.0812     3.9687     3.9687     0.0000
 11 C      6.0801     6.0000    -0.0801     3.9673     3.9673     0.0000
 12 C      5.8568     6.0000     0.1432     3.9127     3.9127    -0.0000
 13 O      8.1902     8.0000    -0.1902     2.2042     2.2042    -0.0000
 14 C      6.0247     6.0000    -0.0247     3.9680     3.9680    -0.0000
 15 C      6.0798     6.0000    -0.0798     3.9671     3.9671     0.0000
 16 C      6.0821     6.0000    -0.0821     3.9687     3.9687    -0.0000
 17 C      6.0779     6.0000    -0.0779     3.9682     3.9682    -0.0000
 18 C      6.0825     6.0000    -0.0825     3.9688     3.9688    -0.0000
 19 C      6.0775     6.0000    -0.0775     3.9670     3.9670     0.0000
 20 H      0.9156     1.0000     0.0844     0.9929     0.9929     0.0000
 21 H      0.9171     1.0000     0.0829     0.9931     0.9931    -0.0000
 22 H      0.9180     1.0000     0.0820     0.9933     0.9933    -0.0000
 23 H      0.7815     1.0000     0.2185     0.9523     0.9523     0.0000
 24 H      0.9078     1.0000     0.0922     0.9915     0.9915    -0.0000
 25 H      0.9080     1.0000     0.0920     0.9915     0.9915    -0.0000
 26 H      0.9084     1.0000     0.0916     0.9916     0.9916    -0.0000
 27 H      0.9088     1.0000     0.0912     0.9917     0.9917    -0.0000
 28 H      0.9088     1.0000     0.0912     0.9917     0.9917    -0.0000
 29 H      0.9103     1.0000     0.0897     0.9920     0.9920    -0.0000
 30 H      0.9099     1.0000     0.0901     0.9919     0.9919    -0.0000
 31 H      0.9102     1.0000     0.0898     0.9919     0.9919    -0.0000
 32 H      0.9096     1.0000     0.0904     0.9918     0.9918    -0.0000

  Mayer bond orders larger than 0.100000
B(  0-H ,  1-C ) :   0.9489 B(  1-C ,  2-C ) :   0.9829 B(  1-C ,  3-C ) :   0.8765 
B(  1-C ,  6-C ) :   0.9779 B(  2-C , 20-H ) :   0.9741 B(  2-C , 21-H ) :   0.9763 
B(  2-C , 22-H ) :   0.9762 B(  3-C ,  4-O ) :   1.0636 B(  3-C ,  5-O ) :   1.9025 
B(  4-O ,  5-O ) :   0.2261 B(  4-O , 23-H ) :   0.9070 B(  6-C ,  7-C ) :   1.4107 
B(  6-C ,  9-C ) :   0.1074 B(  6-C , 11-C ) :   1.3877 B(  7-C ,  8-C ) :   1.3864 
B(  7-C , 10-C ) :   0.1061 B(  7-C , 24-H ) :   0.9550 B(  8-C ,  9-C ) :   1.3900 
B(  8-C , 11-C ) :   0.1073 B(  8-C , 12-C ) :   0.9583 B(  9-C , 10-C ) :   1.4321 
B(  9-C , 25-H ) :   0.9580 B( 10-C , 11-C ) :   1.4362 B( 10-C , 26-H ) :   0.9607 
B( 11-C , 27-H ) :   0.9592 B( 12-C , 13-O ) :   1.9149 B( 12-C , 14-C ) :   0.9603 
B( 14-C , 15-C ) :   1.3888 B( 14-C , 17-C ) :   0.1091 B( 14-C , 19-C ) :   1.3855 
B( 15-C , 16-C ) :   1.4371 B( 15-C , 18-C ) :   0.1106 B( 15-C , 28-H ) :   0.9576 
B( 16-C , 17-C ) :   1.4269 B( 16-C , 19-C ) :   0.1113 B( 16-C , 29-H ) :   0.9613 
B( 17-C , 18-C ) :   1.4218 B( 17-C , 30-H ) :   0.9617 B( 18-C , 19-C ) :   1.4434 
B( 18-C , 31-H ) :   0.9612 B( 19-C , 32-H ) :   0.9582 

-------
TIMINGS
-------

Total SCF time: 0 days 0 hours 0 min 21 sec 

Total time                  ....      21.498 sec
Sum of individual times     ....      21.318 sec  ( 99.2%)

Fock matrix formation       ....      19.581 sec  ( 91.1%)
  Split-RI-J                ....       1.477 sec  (  7.5% of F)
  Chain of spheres X        ....      14.547 sec  ( 74.3% of F)
  XC integration            ....       1.558 sec  (  8.0% of F)
    Basis function eval.    ....       0.785 sec  ( 50.4% of XC)
    Density eval.           ....       0.369 sec  ( 23.7% of XC)
    XC-Functional eval.     ....       0.181 sec  ( 11.6% of XC)
    XC-Potential eval.      ....       0.099 sec  (  6.4% of XC)
Diagonalization             ....       0.000 sec  (  0.0%)
Density matrix formation    ....       0.000 sec  (  0.0%)
Population analysis         ....       0.018 sec  (  0.1%)
Initial guess               ....       0.001 sec  (  0.0%)
Orbital Transformation      ....       0.000 sec  (  0.0%)
Orbital Orthonormalization  ....       0.000 sec  (  0.0%)
DIIS solution               ....       0.000 sec  (  0.0%)
SOSCF solution              ....       0.002 sec  (  0.0%)
Grid generation             ....       1.716 sec  (  8.0%)

Maximum memory used throughout the entire SCF-calculation: 77.9 MB

-------------------------   --------------------
FINAL SINGLE POINT ENERGY      -832.622853842639
-------------------------   --------------------

                                *** OPTIMIZATION RUN DONE ***

                            ***************************************
                            *     ORCA property calculations      *
                            ***************************************

                                    ---------------------
                                    Active property flags
                                    ---------------------
   (+) Dipole Moment


------------------------------------------------------------------------------
                       ORCA ELECTRIC PROPERTIES CALCULATION
------------------------------------------------------------------------------

Dipole Moment Calculation                       ... on
Quadrupole Moment Calculation                   ... off
Polarizability Calculation                      ... off
GBWName                                         ... Dexketoprofen\Dexketoprofen_B3LYP_STO-3G\Dexketoprofen_B3LYP_STO-3G.orcainp.gbw
Electron density                                ... Dexketoprofen\Dexketoprofen_B3LYP_STO-3G\Dexketoprofen_B3LYP_STO-3G.orcainp.scfp
The origin for moment calculation is the CENTER OF MASS  = ( 5.273100, -5.565756 -0.176560)

-------------
DIPOLE MOMENT
-------------
                                X             Y             Z
Electronic contribution:      3.91743      -3.72675      -2.03073
Nuclear contribution   :     -4.25492       3.03939       2.36573
                        -----------------------------------------
Total Dipole Moment    :     -0.33750      -0.68736       0.33500
                        -----------------------------------------
Magnitude (a.u.)       :      0.83582
Magnitude (Debye)      :      2.12448



--------------------
Rotational spectrum 
--------------------
 
Rotational constants in cm-1:     0.019736     0.007039     0.005788 
Rotational constants in MHz :   591.660599   211.035814   173.520521 

 Dipole components along the rotational axes: 
x,y,z [a.u.] :    -0.772980     0.174258     0.265948 
x,y,z [Debye]:    -1.964760     0.442929     0.675986 

 

Timings for individual modules:

Sum of individual times         ...     1323.748 sec (=  22.062 min)
GTO integral calculation        ...        3.388 sec (=   0.056 min)   0.3 %
SCF iterations                  ...      989.168 sec (=  16.486 min)  74.7 %
SCF Gradient evaluation         ...      329.028 sec (=   5.484 min)  24.9 %
Geometry relaxation             ...        2.164 sec (=   0.036 min)   0.2 %
                             ****ORCA TERMINATED NORMALLY****
TOTAL RUN TIME: 0 days 0 hours 22 minutes 6 seconds 344 msec
